# vtk DataFile Version 2.0
FlowField
ASCII
DATASET STRUCTURED_GRID
DIMENSIONS 31 1 11
POINTS 341 float
0 0 0
1 0 0
2 0 0
3 0 0
4 0 0
5 0 0
6 0 0
7 0 0
8 0 0
9 0 0
10 0 0
11 0 0
12 0 0
13 0 0
14 0 0
15 0 0
16 0 0
17 0 0
18 0 0
19 0 0
20 0 0
21 0 0
22 0 0
23 0 0
24 0 0
25 0 0
26 0 0
27 0 0
28 0 0
29 0 0
30 0 0
0 0 1
1 0 1
2 0 1
3 0 1
4 0 1
5 0 1
6 0 1
7 0 1
8 0 1
9 0 1
10 0 1
11 0 1
12 0 1
13 0 1
14 0 1
15 0 1
16 0 1
17 0 1
18 0 1
19 0 1
20 0 1
21 0 1
22 0 1
23 0 1
24 0 1
25 0 1
26 0 1
27 0 1
28 0 1
29 0 1
30 0 1
0 0 2
1 0 2
2 0 2
3 0 2
4 0 2
5 0 2
6 0 2
7 0 2
8 0 2
9 0 2
10 0 2
11 0 2
12 0 2
13 0 2
14 0 2
15 0 2
16 0 2
17 0 2
18 0 2
19 0 2
20 0 2
21 0 2
22 0 2
23 0 2
24 0 2
25 0 2
26 0 2
27 0 2
28 0 2
29 0 2
30 0 2
0 0 3
1 0 3
2 0 3
3 0 3
4 0 3
5 0 3
6 0 3
7 0 3
8 0 3
9 0 3
10 0 3
11 0 3
12 0 3
13 0 3
14 0 3
15 0 3
16 0 3
17 0 3
18 0 3
19 0 3
20 0 3
21 0 3
22 0 3
23 0 3
24 0 3
25 0 3
26 0 3
27 0 3
28 0 3
29 0 3
30 0 3
0 0 4
1 0 4
2 0 4
3 0 4
4 0 4
5 0 4
6 0 4
7 0 4
8 0 4
9 0 4
10 0 4
11 0 4
12 0 4
13 0 4
14 0 4
15 0 4
16 0 4
17 0 4
18 0 4
19 0 4
20 0 4
21 0 4
22 0 4
23 0 4
24 0 4
25 0 4
26 0 4
27 0 4
28 0 4
29 0 4
30 0 4
0 0 5
1 0 5
2 0 5
3 0 5
4 0 5
5 0 5
6 0 5
7 0 5
8 0 5
9 0 5
10 0 5
11 0 5
12 0 5
13 0 5
14 0 5
15 0 5
16 0 5
17 0 5
18 0 5
19 0 5
20 0 5
21 0 5
22 0 5
23 0 5
24 0 5
25 0 5
26 0 5
27 0 5
28 0 5
29 0 5
30 0 5
0 0 6
1 0 6
2 0 6
3 0 6
4 0 6
5 0 6
6 0 6
7 0 6
8 0 6
9 0 6
10 0 6
11 0 6
12 0 6
13 0 6
14 0 6
15 0 6
16 0 6
17 0 6
18 0 6
19 0 6
20 0 6
21 0 6
22 0 6
23 0 6
24 0 6
25 0 6
26 0 6
27 0 6
28 0 6
29 0 6
30 0 6
0 0 7
1 0 7
2 0 7
3 0 7
4 0 7
5 0 7
6 0 7
7 0 7
8 0 7
9 0 7
10 0 7
11 0 7
12 0 7
13 0 7
14 0 7
15 0 7
16 0 7
17 0 7
18 0 7
19 0 7
20 0 7
21 0 7
22 0 7
23 0 7
24 0 7
25 0 7
26 0 7
27 0 7
28 0 7
29 0 7
30 0 7
0 0 8
1 0 8
2 0 8
3 0 8
4 0 8
5 0 8
6 0 8
7 0 8
8 0 8
9 0 8
10 0 8
11 0 8
12 0 8
13 0 8
14 0 8
15 0 8
16 0 8
17 0 8
18 0 8
19 0 8
20 0 8
21 0 8
22 0 8
23 0 8
24 0 8
25 0 8
26 0 8
27 0 8
28 0 8
29 0 8
30 0 8
0 0 9
1 0 9
2 0 9
3 0 9
4 0 9
5 0 9
6 0 9
7 0 9
8 0 9
9 0 9
10 0 9
11 0 9
12 0 9
13 0 9
14 0 9
15 0 9
16 0 9
17 0 9
18 0 9
19 0 9
20 0 9
21 0 9
22 0 9
23 0 9
24 0 9
25 0 9
26 0 9
27 0 9
28 0 9
29 0 9
30 0 9
0 0 10
1 0 10
2 0 10
3 0 10
4 0 10
5 0 10
6 0 10
7 0 10
8 0 10
9 0 10
10 0 10
11 0 10
12 0 10
13 0 10
14 0 10
15 0 10
16 0 10
17 0 10
18 0 10
19 0 10
20 0 10
21 0 10
22 0 10
23 0 10
24 0 10
25 0 10
26 0 10
27 0 10
28 0 10
29 0 10
30 0 10

POINT_DATA 341

SCALARS U float 1
LOOKUP_TABLE default
-0.01
-0.0092826
-0.00898332
-0.00868508
-0.00838725
-0.00808958
-0.007792
-0.00749446
-0.00719693
-0.00689942
-0.00660191
-0.0063044
-0.00600689
-0.00570939
-0.00541189
-0.00511438
-0.00481688
-0.00451937
-0.00422187
-0.00392437
-0.00362686
-0.00332936
-0.00303186
-0.00273435
-0.00243685
-0.00213935
-0.00184184
-0.00154434
-0.00124683
-0.000949331
-0.000949331
0.01
0.0092826
0.00898332
0.00868508
0.00838725
0.00808958
0.007792
0.00749446
0.00719693
0.00689942
0.00660191
0.0063044
0.00600689
0.00570939
0.00541189
0.00511438
0.00481688
0.00451937
0.00422187
0.00392437
0.00362686
0.00332936
0.00303186
0.00273435
0.00243685
0.00213935
0.00184184
0.00154434
0.00124683
0.000949331
0.000949331
0.01
0.00929039
0.00899277
0.00869482
0.00839685
0.00809892
0.00780101
0.00750312
0.00720524
0.00690736
0.00660949
0.00631162
0.00601375
0.00571587
0.00541801
0.00512014
0.00482227
0.0045244
0.00422653
0.00392866
0.00363079
0.00333292
0.00303505
0.00273718
0.00243931
0.00214144
0.00184357
0.0015457
0.00124784
0.000949967
0.000949967
0.01
0.00928935
0.00899206
0.00869443
0.00839665
0.00809881
0.00780095
0.00750309
0.00720522
0.00690735
0.00660948
0.00631161
0.00601374
0.00571587
0.005418
0.00512014
0.00482227
0.0045244
0.00422653
0.00392866
0.00363079
0.00333292
0.00303505
0.00273718
0.00243931
0.00214144
0.00184357
0.0015457
0.00124784
0.000949967
0.000949967
0.01
0.00928898
0.0089917
0.00869418
0.0083965
0.00809873
0.00780091
0.00750306
0.00720521
0.00690734
0.00660948
0.00631161
0.00601374
0.00571587
0.005418
0.00512014
0.00482227
0.0045244
0.00422653
0.00392866
0.00363079
0.00333292
0.00303505
0.00273718
0.00243931
0.00214144
0.00184357
0.0015457
0.00124784
0.000949967
0.000949967
0.01
0.00928887
0.00899158
0.00869409
0.00839644
0.00809869
0.00780089
0.00750305
0.0072052
0.00690734
0.00660948
0.00631161
0.00601374
0.00571587
0.005418
0.00512013
0.00482227
0.0045244
0.00422653
0.00392866
0.00363079
0.00333292
0.00303505
0.00273718
0.00243931
0.00214144
0.00184357
0.0015457
0.00124784
0.000949967
0.000949967
0.01
0.00928896
0.00899167
0.00869415
0.00839647
0.00809871
0.0078009
0.00750305
0.0072052
0.00690734
0.00660948
0.00631161
0.00601374
0.00571587
0.005418
0.00512013
0.00482227
0.0045244
0.00422653
0.00392866
0.00363079
0.00333292
0.00303505
0.00273718
0.00243931
0.00214144
0.00184357
0.0015457
0.00124784
0.000949967
0.000949967
0.01
0.0092893
0.008992
0.00869437
0.0083966
0.00809878
0.00780093
0.00750307
0.00720521
0.00690734
0.00660948
0.00631161
0.00601374
0.00571587
0.005418
0.00512013
0.00482227
0.0045244
0.00422653
0.00392866
0.00363079
0.00333292
0.00303505
0.00273718
0.00243931
0.00214144
0.00184357
0.0015457
0.00124784
0.000949967
0.000949967
0.01
0.00929027
0.00899266
0.00869473
0.00839679
0.00809887
0.00780098
0.00750309
0.00720522
0.00690735
0.00660948
0.00631161
0.00601374
0.00571587
0.005418
0.00512013
0.00482227
0.0045244
0.00422653
0.00392866
0.00363079
0.00333292
0.00303505
0.00273718
0.00243931
0.00214144
0.00184357
0.0015457
0.00124784
0.000949967
0.000949967
0.01
0.00928226
0.00898312
0.00868496
0.00838717
0.00808953
0.00779196
0.00749443
0.00719691
0.0068994
0.0066019
0.00630439
0.00600689
0.00570939
0.00541188
0.00511438
0.00481688
0.00451937
0.00422187
0.00392437
0.00362686
0.00332936
0.00303186
0.00273435
0.00243685
0.00213934
0.00184184
0.00154434
0.00124683
0.000949331
0.000949331
-0.01
-0.00928226
-0.00898312
-0.00868496
-0.00838717
-0.00808953
-0.00779196
-0.00749443
-0.00719691
-0.0068994
-0.0066019
-0.00630439
-0.00600689
-0.00570939
-0.00541188
-0.00511438
-0.00481688
-0.00451937
-0.00422187
-0.00392437
-0.00362686
-0.00332936
-0.00303186
-0.00273435
-0.00243685
-0.00213934
-0.00184184
-0.00154434
-0.00124683
-0.000949331
-0.000949331
