# vtk DataFile Version 2.0
FlowField
ASCII
DATASET STRUCTURED_GRID
DIMENSIONS 31 1 11
POINTS 341 float
0 0 0
1 0 0
2 0 0
3 0 0
4 0 0
5 0 0
6 0 0
7 0 0
8 0 0
9 0 0
10 0 0
11 0 0
12 0 0
13 0 0
14 0 0
15 0 0
16 0 0
17 0 0
18 0 0
19 0 0
20 0 0
21 0 0
22 0 0
23 0 0
24 0 0
25 0 0
26 0 0
27 0 0
28 0 0
29 0 0
30 0 0
0 0 1
1 0 1
2 0 1
3 0 1
4 0 1
5 0 1
6 0 1
7 0 1
8 0 1
9 0 1
10 0 1
11 0 1
12 0 1
13 0 1
14 0 1
15 0 1
16 0 1
17 0 1
18 0 1
19 0 1
20 0 1
21 0 1
22 0 1
23 0 1
24 0 1
25 0 1
26 0 1
27 0 1
28 0 1
29 0 1
30 0 1
0 0 2
1 0 2
2 0 2
3 0 2
4 0 2
5 0 2
6 0 2
7 0 2
8 0 2
9 0 2
10 0 2
11 0 2
12 0 2
13 0 2
14 0 2
15 0 2
16 0 2
17 0 2
18 0 2
19 0 2
20 0 2
21 0 2
22 0 2
23 0 2
24 0 2
25 0 2
26 0 2
27 0 2
28 0 2
29 0 2
30 0 2
0 0 3
1 0 3
2 0 3
3 0 3
4 0 3
5 0 3
6 0 3
7 0 3
8 0 3
9 0 3
10 0 3
11 0 3
12 0 3
13 0 3
14 0 3
15 0 3
16 0 3
17 0 3
18 0 3
19 0 3
20 0 3
21 0 3
22 0 3
23 0 3
24 0 3
25 0 3
26 0 3
27 0 3
28 0 3
29 0 3
30 0 3
0 0 4
1 0 4
2 0 4
3 0 4
4 0 4
5 0 4
6 0 4
7 0 4
8 0 4
9 0 4
10 0 4
11 0 4
12 0 4
13 0 4
14 0 4
15 0 4
16 0 4
17 0 4
18 0 4
19 0 4
20 0 4
21 0 4
22 0 4
23 0 4
24 0 4
25 0 4
26 0 4
27 0 4
28 0 4
29 0 4
30 0 4
0 0 5
1 0 5
2 0 5
3 0 5
4 0 5
5 0 5
6 0 5
7 0 5
8 0 5
9 0 5
10 0 5
11 0 5
12 0 5
13 0 5
14 0 5
15 0 5
16 0 5
17 0 5
18 0 5
19 0 5
20 0 5
21 0 5
22 0 5
23 0 5
24 0 5
25 0 5
26 0 5
27 0 5
28 0 5
29 0 5
30 0 5
0 0 6
1 0 6
2 0 6
3 0 6
4 0 6
5 0 6
6 0 6
7 0 6
8 0 6
9 0 6
10 0 6
11 0 6
12 0 6
13 0 6
14 0 6
15 0 6
16 0 6
17 0 6
18 0 6
19 0 6
20 0 6
21 0 6
22 0 6
23 0 6
24 0 6
25 0 6
26 0 6
27 0 6
28 0 6
29 0 6
30 0 6
0 0 7
1 0 7
2 0 7
3 0 7
4 0 7
5 0 7
6 0 7
7 0 7
8 0 7
9 0 7
10 0 7
11 0 7
12 0 7
13 0 7
14 0 7
15 0 7
16 0 7
17 0 7
18 0 7
19 0 7
20 0 7
21 0 7
22 0 7
23 0 7
24 0 7
25 0 7
26 0 7
27 0 7
28 0 7
29 0 7
30 0 7
0 0 8
1 0 8
2 0 8
3 0 8
4 0 8
5 0 8
6 0 8
7 0 8
8 0 8
9 0 8
10 0 8
11 0 8
12 0 8
13 0 8
14 0 8
15 0 8
16 0 8
17 0 8
18 0 8
19 0 8
20 0 8
21 0 8
22 0 8
23 0 8
24 0 8
25 0 8
26 0 8
27 0 8
28 0 8
29 0 8
30 0 8
0 0 9
1 0 9
2 0 9
3 0 9
4 0 9
5 0 9
6 0 9
7 0 9
8 0 9
9 0 9
10 0 9
11 0 9
12 0 9
13 0 9
14 0 9
15 0 9
16 0 9
17 0 9
18 0 9
19 0 9
20 0 9
21 0 9
22 0 9
23 0 9
24 0 9
25 0 9
26 0 9
27 0 9
28 0 9
29 0 9
30 0 9
0 0 10
1 0 10
2 0 10
3 0 10
4 0 10
5 0 10
6 0 10
7 0 10
8 0 10
9 0 10
10 0 10
11 0 10
12 0 10
13 0 10
14 0 10
15 0 10
16 0 10
17 0 10
18 0 10
19 0 10
20 0 10
21 0 10
22 0 10
23 0 10
24 0 10
25 0 10
26 0 10
27 0 10
28 0 10
29 0 10
30 0 10

POINT_DATA 341

SCALARS U float 1
LOOKUP_TABLE default
-0.01
-0.00964839
-0.00937407
-0.0091073
-0.00884317
-0.00858004
-0.00831729
-0.00805466
-0.00779204
-0.0075294
-0.00726673
-0.00700401
-0.00674128
-0.00647851
-0.00621574
-0.00595295
-0.00569015
-0.00542734
-0.00516453
-0.00490171
-0.0046389
-0.00437608
-0.00411326
-0.00385043
-0.00358761
-0.00332479
-0.00306197
-0.00279915
-0.00253632
-0.0022735
-0.0022735
0.01
0.00964839
0.00937407
0.0091073
0.00884317
0.00858004
0.00831729
0.00805466
0.00779204
0.0075294
0.00726673
0.00700401
0.00674128
0.00647851
0.00621574
0.00595295
0.00569015
0.00542734
0.00516453
0.00490171
0.0046389
0.00437608
0.00411326
0.00385043
0.00358761
0.00332479
0.00306197
0.00279915
0.00253632
0.0022735
0.0022735
0.01
0.00973368
0.00947102
0.00920567
0.00894001
0.00867436
0.00840871
0.00814302
0.00787728
0.00761149
0.00734565
0.00707977
0.00681387
0.00654794
0.00628199
0.00601604
0.00575008
0.00548411
0.00521813
0.00495216
0.00468618
0.0044202
0.00415422
0.00388823
0.00362225
0.00335627
0.00309028
0.0028243
0.00255832
0.00229233
0.00229233
0.01
0.00972694
0.00946667
0.00920361
0.00893924
0.00867423
0.00840887
0.0081433
0.00787759
0.00761179
0.00734593
0.00708003
0.0068141
0.00654816
0.00628219
0.00601622
0.00575025
0.00548427
0.00521828
0.00495229
0.0046863
0.00442031
0.00415432
0.00388833
0.00362234
0.00335635
0.00309035
0.00282436
0.00255837
0.00229237
0.00229237
0.01
0.00972471
0.00946476
0.00920257
0.00893886
0.00867421
0.008409
0.00814347
0.00787775
0.00761193
0.00734604
0.00708012
0.00681417
0.0065482
0.00628223
0.00601625
0.00575026
0.00548428
0.00521829
0.0049523
0.00468631
0.00442032
0.00415432
0.00388833
0.00362234
0.00335635
0.00309035
0.00282436
0.00255837
0.00229237
0.00229237
0.01
0.00972472
0.00946502
0.00920305
0.00893942
0.00867474
0.00840945
0.00814383
0.00787803
0.00761213
0.00734619
0.00708022
0.00681425
0.00654826
0.00628227
0.00601628
0.00575029
0.00548429
0.0052183
0.00495231
0.00468631
0.00442032
0.00415433
0.00388833
0.00362234
0.00335635
0.00309035
0.00282436
0.00255837
0.00229237
0.00229237
0.01
0.0097267
0.0094675
0.0092052
0.00894103
0.00867588
0.00841024
0.00814437
0.0078784
0.00761239
0.00734637
0.00708035
0.00681433
0.00654832
0.00628231
0.00601631
0.00575031
0.00548431
0.00521831
0.00495231
0.00468632
0.00442032
0.00415433
0.00388834
0.00362234
0.00335635
0.00309035
0.00282436
0.00255837
0.00229237
0.00229237
0.01
0.00973217
0.00947302
0.0092092
0.00894363
0.00867751
0.00841125
0.008145
0.0078788
0.00761265
0.00734654
0.00708046
0.00681441
0.00654837
0.00628235
0.00601633
0.00575032
0.00548432
0.00521832
0.00495232
0.00468632
0.00442033
0.00415433
0.00388834
0.00362234
0.00335635
0.00309035
0.00282436
0.00255837
0.00229237
0.00229237
0.01
0.00974612
0.00948265
0.00921449
0.00894634
0.00867882
0.00841182
0.00814518
0.00787876
0.00761249
0.00734632
0.00708021
0.00681414
0.00654809
0.00628207
0.00601606
0.00575006
0.00548407
0.00521808
0.00495209
0.00468611
0.00442013
0.00415415
0.00388817
0.00362219
0.00335621
0.00309023
0.00282425
0.00255828
0.0022923
0.0022923
0.01
0.00964693
0.00935923
0.0090863
0.00881911
0.00855446
0.00829104
0.00802827
0.00776585
0.00750365
0.00724158
0.00697959
0.00671766
0.00645575
0.00619387
0.00593201
0.00567016
0.00540831
0.00514647
0.00488463
0.0046228
0.00436097
0.00409914
0.00383731
0.00357548
0.00331365
0.00305182
0.00278999
0.00252816
0.00226634
0.00226634
-0.01
-0.00964693
-0.00935923
-0.0090863
-0.00881911
-0.00855446
-0.00829104
-0.00802827
-0.00776585
-0.00750365
-0.00724158
-0.00697959
-0.00671766
-0.00645575
-0.00619387
-0.00593201
-0.00567016
-0.00540831
-0.00514647
-0.00488463
-0.0046228
-0.00436097
-0.00409914
-0.00383731
-0.00357548
-0.00331365
-0.00305182
-0.00278999
-0.00252816
-0.00226634
-0.00226634
