# vtk DataFile Version 2.0
FlowField
ASCII
DATASET STRUCTURED_GRID
DIMENSIONS 31 1 11
POINTS 341 float
0 0 0
1 0 0
2 0 0
3 0 0
4 0 0
5 0 0
6 0 0
7 0 0
8 0 0
9 0 0
10 0 0
11 0 0
12 0 0
13 0 0
14 0 0
15 0 0
16 0 0
17 0 0
18 0 0
19 0 0
20 0 0
21 0 0
22 0 0
23 0 0
24 0 0
25 0 0
26 0 0
27 0 0
28 0 0
29 0 0
30 0 0
0 0 1
1 0 1
2 0 1
3 0 1
4 0 1
5 0 1
6 0 1
7 0 1
8 0 1
9 0 1
10 0 1
11 0 1
12 0 1
13 0 1
14 0 1
15 0 1
16 0 1
17 0 1
18 0 1
19 0 1
20 0 1
21 0 1
22 0 1
23 0 1
24 0 1
25 0 1
26 0 1
27 0 1
28 0 1
29 0 1
30 0 1
0 0 2
1 0 2
2 0 2
3 0 2
4 0 2
5 0 2
6 0 2
7 0 2
8 0 2
9 0 2
10 0 2
11 0 2
12 0 2
13 0 2
14 0 2
15 0 2
16 0 2
17 0 2
18 0 2
19 0 2
20 0 2
21 0 2
22 0 2
23 0 2
24 0 2
25 0 2
26 0 2
27 0 2
28 0 2
29 0 2
30 0 2
0 0 3
1 0 3
2 0 3
3 0 3
4 0 3
5 0 3
6 0 3
7 0 3
8 0 3
9 0 3
10 0 3
11 0 3
12 0 3
13 0 3
14 0 3
15 0 3
16 0 3
17 0 3
18 0 3
19 0 3
20 0 3
21 0 3
22 0 3
23 0 3
24 0 3
25 0 3
26 0 3
27 0 3
28 0 3
29 0 3
30 0 3
0 0 4
1 0 4
2 0 4
3 0 4
4 0 4
5 0 4
6 0 4
7 0 4
8 0 4
9 0 4
10 0 4
11 0 4
12 0 4
13 0 4
14 0 4
15 0 4
16 0 4
17 0 4
18 0 4
19 0 4
20 0 4
21 0 4
22 0 4
23 0 4
24 0 4
25 0 4
26 0 4
27 0 4
28 0 4
29 0 4
30 0 4
0 0 5
1 0 5
2 0 5
3 0 5
4 0 5
5 0 5
6 0 5
7 0 5
8 0 5
9 0 5
10 0 5
11 0 5
12 0 5
13 0 5
14 0 5
15 0 5
16 0 5
17 0 5
18 0 5
19 0 5
20 0 5
21 0 5
22 0 5
23 0 5
24 0 5
25 0 5
26 0 5
27 0 5
28 0 5
29 0 5
30 0 5
0 0 6
1 0 6
2 0 6
3 0 6
4 0 6
5 0 6
6 0 6
7 0 6
8 0 6
9 0 6
10 0 6
11 0 6
12 0 6
13 0 6
14 0 6
15 0 6
16 0 6
17 0 6
18 0 6
19 0 6
20 0 6
21 0 6
22 0 6
23 0 6
24 0 6
25 0 6
26 0 6
27 0 6
28 0 6
29 0 6
30 0 6
0 0 7
1 0 7
2 0 7
3 0 7
4 0 7
5 0 7
6 0 7
7 0 7
8 0 7
9 0 7
10 0 7
11 0 7
12 0 7
13 0 7
14 0 7
15 0 7
16 0 7
17 0 7
18 0 7
19 0 7
20 0 7
21 0 7
22 0 7
23 0 7
24 0 7
25 0 7
26 0 7
27 0 7
28 0 7
29 0 7
30 0 7
0 0 8
1 0 8
2 0 8
3 0 8
4 0 8
5 0 8
6 0 8
7 0 8
8 0 8
9 0 8
10 0 8
11 0 8
12 0 8
13 0 8
14 0 8
15 0 8
16 0 8
17 0 8
18 0 8
19 0 8
20 0 8
21 0 8
22 0 8
23 0 8
24 0 8
25 0 8
26 0 8
27 0 8
28 0 8
29 0 8
30 0 8
0 0 9
1 0 9
2 0 9
3 0 9
4 0 9
5 0 9
6 0 9
7 0 9
8 0 9
9 0 9
10 0 9
11 0 9
12 0 9
13 0 9
14 0 9
15 0 9
16 0 9
17 0 9
18 0 9
19 0 9
20 0 9
21 0 9
22 0 9
23 0 9
24 0 9
25 0 9
26 0 9
27 0 9
28 0 9
29 0 9
30 0 9
0 0 10
1 0 10
2 0 10
3 0 10
4 0 10
5 0 10
6 0 10
7 0 10
8 0 10
9 0 10
10 0 10
11 0 10
12 0 10
13 0 10
14 0 10
15 0 10
16 0 10
17 0 10
18 0 10
19 0 10
20 0 10
21 0 10
22 0 10
23 0 10
24 0 10
25 0 10
26 0 10
27 0 10
28 0 10
29 0 10
30 0 10

POINT_DATA 341

SCALARS U float 1
LOOKUP_TABLE default
-0.01
-0.00963292
-0.00935689
-0.00909219
-0.00883115
-0.00857143
-0.00831215
-0.00805295
-0.00779369
-0.00753435
-0.00727492
-0.0070154
-0.00675583
-0.0064962
-0.00623655
-0.00597686
-0.00571716
-0.00545744
-0.00519771
-0.00493797
-0.00467823
-0.00441849
-0.00415874
-0.00389899
-0.00363925
-0.00337949
-0.00311974
-0.00285999
-0.00260024
-0.00234049
-0.00234049
0.01
0.00963292
0.00935689
0.00909219
0.00883115
0.00857143
0.00831215
0.00805295
0.00779369
0.00753435
0.00727492
0.0070154
0.00675583
0.0064962
0.00623655
0.00597686
0.00571716
0.00545744
0.00519771
0.00493797
0.00467823
0.00441849
0.00415874
0.00389899
0.00363925
0.00337949
0.00311974
0.00285999
0.00260024
0.00234049
0.00234049
0.01
0.00977064
0.00951175
0.00924877
0.0089852
0.00872153
0.00845774
0.00819382
0.00792975
0.00766555
0.00740125
0.00713686
0.00687242
0.00660793
0.0063434
0.00607885
0.00581428
0.0055497
0.00528511
0.00502052
0.00475592
0.00449131
0.00422671
0.0039621
0.0036975
0.00343289
0.00316828
0.00290367
0.00263906
0.00237445
0.00237445
0.01
0.00976151
0.00950608
0.00924639
0.00898467
0.00872187
0.00845845
0.00819464
0.00793057
0.00766633
0.00740197
0.00713753
0.00687303
0.00660849
0.00634392
0.00607933
0.00581473
0.00555012
0.0052855
0.00502088
0.00475626
0.00449163
0.004227
0.00396237
0.00369774
0.00343311
0.00316848
0.00290384
0.00263921
0.00237458
0.00237458
0.01
0.00975858
0.00950373
0.00924532
0.00898451
0.00872217
0.0084589
0.0081951
0.00793097
0.00766665
0.00740221
0.00713771
0.00687316
0.00660859
0.00634399
0.00607938
0.00581477
0.00555015
0.00528552
0.0050209
0.00475627
0.00449164
0.00422701
0.00396238
0.00369774
0.00343311
0.00316848
0.00290384
0.00263921
0.00237458
0.00237458
0.01
0.009759
0.00950473
0.00924666
0.00898588
0.00872338
0.0084599
0.00819587
0.00793155
0.00766708
0.00740253
0.00713793
0.00687332
0.0066087
0.00634407
0.00607944
0.00581481
0.00555018
0.00528555
0.00502091
0.00475628
0.00449165
0.00422701
0.00396238
0.00369775
0.00343311
0.00316848
0.00290385
0.00263921
0.00237458
0.00237458
0.01
0.00976262
0.00950933
0.0092507
0.00898896
0.00872559
0.00846144
0.00819693
0.00793228
0.00766758
0.00740288
0.00713818
0.0068735
0.00660882
0.00634416
0.0060795
0.00581485
0.00555021
0.00528557
0.00502093
0.00475629
0.00449165
0.00422702
0.00396238
0.00369775
0.00343311
0.00316848
0.00290385
0.00263921
0.00237458
0.00237458
0.01
0.00977214
0.00951906
0.00925785
0.00899367
0.00872858
0.00846332
0.00819813
0.00793306
0.0076681
0.00740322
0.00713841
0.00687365
0.00660893
0.00634423
0.00607955
0.00581489
0.00555023
0.00528558
0.00502094
0.0047563
0.00449166
0.00422702
0.00396238
0.00369775
0.00343311
0.00316848
0.00290385
0.00263921
0.00237458
0.00237458
0.01
0.0097957
0.0095353
0.00926658
0.00899792
0.00873041
0.00846388
0.008198
0.00793255
0.00766738
0.0074024
0.00713754
0.00687277
0.00660805
0.00634337
0.00607871
0.00581408
0.00554946
0.00528485
0.00502024
0.00475564
0.00449104
0.00422645
0.00396186
0.00369726
0.00343267
0.00316808
0.00290349
0.0026389
0.00237431
0.00237431
0.01
0.00963124
0.00932803
0.00905056
0.00878318
0.00852025
0.0082595
0.00799993
0.00774101
0.00748248
0.0072242
0.00696608
0.00670806
0.0064501
0.00619219
0.00593431
0.00567646
0.00541862
0.00516079
0.00490297
0.00464515
0.00438734
0.00412952
0.00387172
0.00361391
0.0033561
0.00309829
0.00284049
0.00258268
0.00232488
0.00232488
-0.01
-0.00963124
-0.00932803
-0.00905056
-0.00878318
-0.00852025
-0.0082595
-0.00799993
-0.00774101
-0.00748248
-0.0072242
-0.00696608
-0.00670806
-0.0064501
-0.00619219
-0.00593431
-0.00567646
-0.00541862
-0.00516079
-0.00490297
-0.00464515
-0.00438734
-0.00412952
-0.00387172
-0.00361391
-0.0033561
-0.00309829
-0.00284049
-0.00258268
-0.00232488
-0.00232488
