# vtk DataFile Version 2.0
FlowField
ASCII
DATASET STRUCTURED_GRID
DIMENSIONS 31 1 11
POINTS 341 float
0 0 0
1 0 0
2 0 0
3 0 0
4 0 0
5 0 0
6 0 0
7 0 0
8 0 0
9 0 0
10 0 0
11 0 0
12 0 0
13 0 0
14 0 0
15 0 0
16 0 0
17 0 0
18 0 0
19 0 0
20 0 0
21 0 0
22 0 0
23 0 0
24 0 0
25 0 0
26 0 0
27 0 0
28 0 0
29 0 0
30 0 0
0 0 1
1 0 1
2 0 1
3 0 1
4 0 1
5 0 1
6 0 1
7 0 1
8 0 1
9 0 1
10 0 1
11 0 1
12 0 1
13 0 1
14 0 1
15 0 1
16 0 1
17 0 1
18 0 1
19 0 1
20 0 1
21 0 1
22 0 1
23 0 1
24 0 1
25 0 1
26 0 1
27 0 1
28 0 1
29 0 1
30 0 1
0 0 2
1 0 2
2 0 2
3 0 2
4 0 2
5 0 2
6 0 2
7 0 2
8 0 2
9 0 2
10 0 2
11 0 2
12 0 2
13 0 2
14 0 2
15 0 2
16 0 2
17 0 2
18 0 2
19 0 2
20 0 2
21 0 2
22 0 2
23 0 2
24 0 2
25 0 2
26 0 2
27 0 2
28 0 2
29 0 2
30 0 2
0 0 3
1 0 3
2 0 3
3 0 3
4 0 3
5 0 3
6 0 3
7 0 3
8 0 3
9 0 3
10 0 3
11 0 3
12 0 3
13 0 3
14 0 3
15 0 3
16 0 3
17 0 3
18 0 3
19 0 3
20 0 3
21 0 3
22 0 3
23 0 3
24 0 3
25 0 3
26 0 3
27 0 3
28 0 3
29 0 3
30 0 3
0 0 4
1 0 4
2 0 4
3 0 4
4 0 4
5 0 4
6 0 4
7 0 4
8 0 4
9 0 4
10 0 4
11 0 4
12 0 4
13 0 4
14 0 4
15 0 4
16 0 4
17 0 4
18 0 4
19 0 4
20 0 4
21 0 4
22 0 4
23 0 4
24 0 4
25 0 4
26 0 4
27 0 4
28 0 4
29 0 4
30 0 4
0 0 5
1 0 5
2 0 5
3 0 5
4 0 5
5 0 5
6 0 5
7 0 5
8 0 5
9 0 5
10 0 5
11 0 5
12 0 5
13 0 5
14 0 5
15 0 5
16 0 5
17 0 5
18 0 5
19 0 5
20 0 5
21 0 5
22 0 5
23 0 5
24 0 5
25 0 5
26 0 5
27 0 5
28 0 5
29 0 5
30 0 5
0 0 6
1 0 6
2 0 6
3 0 6
4 0 6
5 0 6
6 0 6
7 0 6
8 0 6
9 0 6
10 0 6
11 0 6
12 0 6
13 0 6
14 0 6
15 0 6
16 0 6
17 0 6
18 0 6
19 0 6
20 0 6
21 0 6
22 0 6
23 0 6
24 0 6
25 0 6
26 0 6
27 0 6
28 0 6
29 0 6
30 0 6
0 0 7
1 0 7
2 0 7
3 0 7
4 0 7
5 0 7
6 0 7
7 0 7
8 0 7
9 0 7
10 0 7
11 0 7
12 0 7
13 0 7
14 0 7
15 0 7
16 0 7
17 0 7
18 0 7
19 0 7
20 0 7
21 0 7
22 0 7
23 0 7
24 0 7
25 0 7
26 0 7
27 0 7
28 0 7
29 0 7
30 0 7
0 0 8
1 0 8
2 0 8
3 0 8
4 0 8
5 0 8
6 0 8
7 0 8
8 0 8
9 0 8
10 0 8
11 0 8
12 0 8
13 0 8
14 0 8
15 0 8
16 0 8
17 0 8
18 0 8
19 0 8
20 0 8
21 0 8
22 0 8
23 0 8
24 0 8
25 0 8
26 0 8
27 0 8
28 0 8
29 0 8
30 0 8
0 0 9
1 0 9
2 0 9
3 0 9
4 0 9
5 0 9
6 0 9
7 0 9
8 0 9
9 0 9
10 0 9
11 0 9
12 0 9
13 0 9
14 0 9
15 0 9
16 0 9
17 0 9
18 0 9
19 0 9
20 0 9
21 0 9
22 0 9
23 0 9
24 0 9
25 0 9
26 0 9
27 0 9
28 0 9
29 0 9
30 0 9
0 0 10
1 0 10
2 0 10
3 0 10
4 0 10
5 0 10
6 0 10
7 0 10
8 0 10
9 0 10
10 0 10
11 0 10
12 0 10
13 0 10
14 0 10
15 0 10
16 0 10
17 0 10
18 0 10
19 0 10
20 0 10
21 0 10
22 0 10
23 0 10
24 0 10
25 0 10
26 0 10
27 0 10
28 0 10
29 0 10
30 0 10

POINT_DATA 341

SCALARS U float 1
LOOKUP_TABLE default
-0.01
-0.00964017
-0.00936487
-0.00909992
-0.00883837
-0.00857808
-0.0083182
-0.00805841
-0.00779859
-0.0075387
-0.00727873
-0.0070187
-0.00675861
-0.00649847
-0.00623831
-0.00597813
-0.00571792
-0.00545771
-0.00519749
-0.00493726
-0.00467702
-0.00441679
-0.00415655
-0.00389631
-0.00363606
-0.00337582
-0.00311558
-0.00285534
-0.00259509
-0.00233485
-0.00233485
0.01
0.00964017
0.00936487
0.00909992
0.00883837
0.00857808
0.0083182
0.00805841
0.00779859
0.0075387
0.00727873
0.0070187
0.00675861
0.00649847
0.00623831
0.00597813
0.00571792
0.00545771
0.00519749
0.00493726
0.00467702
0.00441679
0.00415655
0.00389631
0.00363606
0.00337582
0.00311558
0.00285534
0.00259509
0.00233485
0.00233485
0.01
0.00976497
0.0095054
0.00924209
0.00897827
0.00871437
0.00845038
0.00818629
0.00792207
0.00765774
0.00739332
0.00712884
0.00686429
0.00659971
0.0063351
0.00607047
0.00580582
0.00554117
0.0052765
0.00501183
0.00474716
0.00448248
0.0042178
0.00395312
0.00368844
0.00342376
0.00315908
0.00289439
0.00262971
0.00236503
0.00236503
0.01
0.0097564
0.00950003
0.00923977
0.00897765
0.00871457
0.00845094
0.00818695
0.00792274
0.00765838
0.00739392
0.00712938
0.0068648
0.00660017
0.00633553
0.00607087
0.00580619
0.00554151
0.00527682
0.00501213
0.00474743
0.00448274
0.00421804
0.00395334
0.00368864
0.00342394
0.00315924
0.00289453
0.00262983
0.00236513
0.00236513
0.01
0.00975365
0.00949778
0.0092387
0.00897743
0.00871479
0.00845131
0.00818734
0.00792308
0.00765866
0.00739413
0.00712954
0.00686491
0.00660026
0.00633559
0.00607091
0.00580623
0.00554153
0.00527684
0.00501214
0.00474744
0.00448274
0.00421804
0.00395334
0.00368864
0.00342394
0.00315924
0.00289453
0.00262983
0.00236513
0.00236513
0.01
0.00975396
0.0094986
0.00923982
0.0089786
0.00871583
0.00845216
0.008188
0.00792359
0.00765903
0.0073944
0.00712974
0.00686505
0.00660036
0.00633566
0.00607096
0.00580626
0.00554156
0.00527686
0.00501216
0.00474745
0.00448275
0.00421805
0.00395335
0.00368864
0.00342394
0.00315924
0.00289453
0.00262983
0.00236513
0.00236513
0.01
0.00975717
0.00950266
0.00924339
0.00898131
0.00871776
0.00845351
0.00818893
0.00792423
0.00765947
0.00739471
0.00712995
0.0068652
0.00660047
0.00633574
0.00607102
0.0058063
0.00554159
0.00527688
0.00501217
0.00474746
0.00448276
0.00421805
0.00395335
0.00368864
0.00342394
0.00315924
0.00289454
0.00262983
0.00236513
0.00236513
0.01
0.00976567
0.00951134
0.00924974
0.00898548
0.00872041
0.00845517
0.00818999
0.00792491
0.00765992
0.00739501
0.00713015
0.00686534
0.00660056
0.0063358
0.00607106
0.00580633
0.00554161
0.00527689
0.00501218
0.00474747
0.00448276
0.00421805
0.00395335
0.00368865
0.00342394
0.00315924
0.00289454
0.00262983
0.00236513
0.00236513
0.01
0.00978688
0.00952595
0.00925765
0.00898939
0.00872215
0.00845577
0.00818998
0.00792456
0.00765939
0.00739437
0.00712947
0.00686464
0.00659986
0.00633512
0.00607039
0.00580569
0.00554099
0.00527631
0.00501162
0.00474695
0.00448227
0.0042176
0.00395293
0.00368826
0.00342359
0.00315892
0.00289426
0.00262959
0.00236492
0.00236492
0.01
0.00963855
0.00933953
0.00906349
0.00879643
0.00853335
0.00827221
0.00801211
0.0077526
0.00749343
0.00723448
0.00697566
0.00671693
0.00645827
0.00619964
0.00594104
0.00568246
0.00542389
0.00516534
0.00490678
0.00464824
0.00438969
0.00413115
0.00387261
0.00361407
0.00335554
0.003097
0.00283846
0.00257993
0.00232139
0.00232139
-0.01
-0.00963855
-0.00933953
-0.00906349
-0.00879643
-0.00853335
-0.00827221
-0.00801211
-0.0077526
-0.00749343
-0.00723448
-0.00697566
-0.00671693
-0.00645827
-0.00619964
-0.00594104
-0.00568246
-0.00542389
-0.00516534
-0.00490678
-0.00464824
-0.00438969
-0.00413115
-0.00387261
-0.00361407
-0.00335554
-0.003097
-0.00283846
-0.00257993
-0.00232139
-0.00232139
