# vtk DataFile Version 2.0
FlowField
ASCII
DATASET STRUCTURED_GRID
DIMENSIONS 31 1 11
POINTS 341 float
0 0 0
1 0 0
2 0 0
3 0 0
4 0 0
5 0 0
6 0 0
7 0 0
8 0 0
9 0 0
10 0 0
11 0 0
12 0 0
13 0 0
14 0 0
15 0 0
16 0 0
17 0 0
18 0 0
19 0 0
20 0 0
21 0 0
22 0 0
23 0 0
24 0 0
25 0 0
26 0 0
27 0 0
28 0 0
29 0 0
30 0 0
0 0 1
1 0 1
2 0 1
3 0 1
4 0 1
5 0 1
6 0 1
7 0 1
8 0 1
9 0 1
10 0 1
11 0 1
12 0 1
13 0 1
14 0 1
15 0 1
16 0 1
17 0 1
18 0 1
19 0 1
20 0 1
21 0 1
22 0 1
23 0 1
24 0 1
25 0 1
26 0 1
27 0 1
28 0 1
29 0 1
30 0 1
0 0 2
1 0 2
2 0 2
3 0 2
4 0 2
5 0 2
6 0 2
7 0 2
8 0 2
9 0 2
10 0 2
11 0 2
12 0 2
13 0 2
14 0 2
15 0 2
16 0 2
17 0 2
18 0 2
19 0 2
20 0 2
21 0 2
22 0 2
23 0 2
24 0 2
25 0 2
26 0 2
27 0 2
28 0 2
29 0 2
30 0 2
0 0 3
1 0 3
2 0 3
3 0 3
4 0 3
5 0 3
6 0 3
7 0 3
8 0 3
9 0 3
10 0 3
11 0 3
12 0 3
13 0 3
14 0 3
15 0 3
16 0 3
17 0 3
18 0 3
19 0 3
20 0 3
21 0 3
22 0 3
23 0 3
24 0 3
25 0 3
26 0 3
27 0 3
28 0 3
29 0 3
30 0 3
0 0 4
1 0 4
2 0 4
3 0 4
4 0 4
5 0 4
6 0 4
7 0 4
8 0 4
9 0 4
10 0 4
11 0 4
12 0 4
13 0 4
14 0 4
15 0 4
16 0 4
17 0 4
18 0 4
19 0 4
20 0 4
21 0 4
22 0 4
23 0 4
24 0 4
25 0 4
26 0 4
27 0 4
28 0 4
29 0 4
30 0 4
0 0 5
1 0 5
2 0 5
3 0 5
4 0 5
5 0 5
6 0 5
7 0 5
8 0 5
9 0 5
10 0 5
11 0 5
12 0 5
13 0 5
14 0 5
15 0 5
16 0 5
17 0 5
18 0 5
19 0 5
20 0 5
21 0 5
22 0 5
23 0 5
24 0 5
25 0 5
26 0 5
27 0 5
28 0 5
29 0 5
30 0 5
0 0 6
1 0 6
2 0 6
3 0 6
4 0 6
5 0 6
6 0 6
7 0 6
8 0 6
9 0 6
10 0 6
11 0 6
12 0 6
13 0 6
14 0 6
15 0 6
16 0 6
17 0 6
18 0 6
19 0 6
20 0 6
21 0 6
22 0 6
23 0 6
24 0 6
25 0 6
26 0 6
27 0 6
28 0 6
29 0 6
30 0 6
0 0 7
1 0 7
2 0 7
3 0 7
4 0 7
5 0 7
6 0 7
7 0 7
8 0 7
9 0 7
10 0 7
11 0 7
12 0 7
13 0 7
14 0 7
15 0 7
16 0 7
17 0 7
18 0 7
19 0 7
20 0 7
21 0 7
22 0 7
23 0 7
24 0 7
25 0 7
26 0 7
27 0 7
28 0 7
29 0 7
30 0 7
0 0 8
1 0 8
2 0 8
3 0 8
4 0 8
5 0 8
6 0 8
7 0 8
8 0 8
9 0 8
10 0 8
11 0 8
12 0 8
13 0 8
14 0 8
15 0 8
16 0 8
17 0 8
18 0 8
19 0 8
20 0 8
21 0 8
22 0 8
23 0 8
24 0 8
25 0 8
26 0 8
27 0 8
28 0 8
29 0 8
30 0 8
0 0 9
1 0 9
2 0 9
3 0 9
4 0 9
5 0 9
6 0 9
7 0 9
8 0 9
9 0 9
10 0 9
11 0 9
12 0 9
13 0 9
14 0 9
15 0 9
16 0 9
17 0 9
18 0 9
19 0 9
20 0 9
21 0 9
22 0 9
23 0 9
24 0 9
25 0 9
26 0 9
27 0 9
28 0 9
29 0 9
30 0 9
0 0 10
1 0 10
2 0 10
3 0 10
4 0 10
5 0 10
6 0 10
7 0 10
8 0 10
9 0 10
10 0 10
11 0 10
12 0 10
13 0 10
14 0 10
15 0 10
16 0 10
17 0 10
18 0 10
19 0 10
20 0 10
21 0 10
22 0 10
23 0 10
24 0 10
25 0 10
26 0 10
27 0 10
28 0 10
29 0 10
30 0 10

POINT_DATA 341

SCALARS U float 1
LOOKUP_TABLE default
-0.01
-0.00964331
-0.00936831
-0.00910319
-0.00884136
-0.00858073
-0.00832052
-0.0080604
-0.00780026
-0.00754005
-0.00727977
-0.00701943
-0.00675904
-0.00649861
-0.00623816
-0.00597768
-0.00571719
-0.00545668
-0.00519617
-0.00493565
-0.00467513
-0.00441461
-0.00415408
-0.00389355
-0.00363302
-0.00337249
-0.00311196
-0.00285143
-0.0025909
-0.00233037
-0.00233037
0.01
0.00964331
0.00936831
0.00910319
0.00884136
0.00858073
0.00832052
0.0080604
0.00780026
0.00754005
0.00727977
0.00701943
0.00675904
0.00649861
0.00623816
0.00597768
0.00571719
0.00545668
0.00519617
0.00493565
0.00467513
0.00441461
0.00415408
0.00389355
0.00363302
0.00337249
0.00311196
0.00285143
0.0025909
0.00233037
0.00233037
0.01
0.0097616
0.00950165
0.00923814
0.00897415
0.00871009
0.00844597
0.00818174
0.00791741
0.00765298
0.00738846
0.00712389
0.00685926
0.00659459
0.0063299
0.00606519
0.00580046
0.00553572
0.00527098
0.00500623
0.00474148
0.00447673
0.00421197
0.00394721
0.00368245
0.00341769
0.00315293
0.00288817
0.00262341
0.00235865
0.00235865
0.01
0.00975332
0.00949643
0.00923584
0.0089735
0.00871023
0.00844645
0.00818234
0.00791802
0.00765356
0.007389
0.00712438
0.00685971
0.00659501
0.00633028
0.00606554
0.00580079
0.00553603
0.00527127
0.0050065
0.00474173
0.00447695
0.00421218
0.00394741
0.00368263
0.00341785
0.00315308
0.0028883
0.00262352
0.00235874
0.00235874
0.01
0.00975065
0.00949424
0.00923478
0.00897325
0.0087104
0.00844678
0.00818269
0.00791833
0.00765381
0.0073892
0.00712452
0.00685982
0.00659508
0.00633034
0.00606558
0.00580082
0.00553605
0.00527128
0.00500651
0.00474174
0.00447696
0.00421218
0.00394741
0.00368263
0.00341785
0.00315308
0.0028883
0.00262352
0.00235875
0.00235875
0.01
0.00975091
0.00949496
0.00923579
0.00897431
0.00871136
0.00844756
0.0081833
0.00791879
0.00765415
0.00738945
0.00712471
0.00685995
0.00659518
0.00633041
0.00606563
0.00580085
0.00553608
0.0052713
0.00500652
0.00474174
0.00447697
0.00421219
0.00394741
0.00368263
0.00341786
0.00315308
0.0028883
0.00262352
0.00235875
0.00235875
0.01
0.00975391
0.00949876
0.00923912
0.00897683
0.00871316
0.00844882
0.00818417
0.00791939
0.00765457
0.00738973
0.0071249
0.00686009
0.00659528
0.00633047
0.00606568
0.00580089
0.0055361
0.00527132
0.00500653
0.00474175
0.00447697
0.00421219
0.00394741
0.00368264
0.00341786
0.00315308
0.0028883
0.00262352
0.00235875
0.00235875
0.01
0.00976191
0.00950691
0.00924508
0.00898075
0.00871563
0.00845037
0.00818515
0.00792003
0.00765498
0.00739001
0.00712509
0.00686021
0.00659536
0.00633053
0.00606572
0.00580092
0.00553612
0.00527133
0.00500654
0.00474176
0.00447698
0.0042122
0.00394742
0.00368264
0.00341786
0.00315308
0.0028883
0.00262352
0.00235874
0.00235874
0.01
0.00978192
0.0095207
0.00925257
0.00898447
0.00871733
0.00845098
0.00818518
0.00791974
0.00765453
0.00738946
0.0071245
0.0068596
0.00659475
0.00632993
0.00606513
0.00580035
0.00553558
0.00527081
0.00500606
0.0047413
0.00447655
0.0042118
0.00394705
0.0036823
0.00341755
0.0031528
0.00288806
0.00262331
0.00235856
0.00235856
0.01
0.00964171
0.00934473
0.00906936
0.00880243
0.00853923
0.00827786
0.00801745
0.0077576
0.00749807
0.00723873
0.00697953
0.00672041
0.00646135
0.00620232
0.00594332
0.00568434
0.00542536
0.0051664
0.00490744
0.00464849
0.00438954
0.00413059
0.00387165
0.0036127
0.00335376
0.00309481
0.00283587
0.00257693
0.00231798
0.00231798
-0.01
-0.00964171
-0.00934473
-0.00906936
-0.00880243
-0.00853923
-0.00827786
-0.00801745
-0.0077576
-0.00749807
-0.00723873
-0.00697953
-0.00672041
-0.00646135
-0.00620232
-0.00594332
-0.00568434
-0.00542536
-0.0051664
-0.00490744
-0.00464849
-0.00438954
-0.00413059
-0.00387165
-0.0036127
-0.00335376
-0.00309481
-0.00283587
-0.00257693
-0.00231798
-0.00231798
