# vtk DataFile Version 2.0
FlowField
ASCII
DATASET STRUCTURED_GRID
DIMENSIONS 31 1 11
POINTS 341 float
0 0 0
1 0 0
2 0 0
3 0 0
4 0 0
5 0 0
6 0 0
7 0 0
8 0 0
9 0 0
10 0 0
11 0 0
12 0 0
13 0 0
14 0 0
15 0 0
16 0 0
17 0 0
18 0 0
19 0 0
20 0 0
21 0 0
22 0 0
23 0 0
24 0 0
25 0 0
26 0 0
27 0 0
28 0 0
29 0 0
30 0 0
0 0 1
1 0 1
2 0 1
3 0 1
4 0 1
5 0 1
6 0 1
7 0 1
8 0 1
9 0 1
10 0 1
11 0 1
12 0 1
13 0 1
14 0 1
15 0 1
16 0 1
17 0 1
18 0 1
19 0 1
20 0 1
21 0 1
22 0 1
23 0 1
24 0 1
25 0 1
26 0 1
27 0 1
28 0 1
29 0 1
30 0 1
0 0 2
1 0 2
2 0 2
3 0 2
4 0 2
5 0 2
6 0 2
7 0 2
8 0 2
9 0 2
10 0 2
11 0 2
12 0 2
13 0 2
14 0 2
15 0 2
16 0 2
17 0 2
18 0 2
19 0 2
20 0 2
21 0 2
22 0 2
23 0 2
24 0 2
25 0 2
26 0 2
27 0 2
28 0 2
29 0 2
30 0 2
0 0 3
1 0 3
2 0 3
3 0 3
4 0 3
5 0 3
6 0 3
7 0 3
8 0 3
9 0 3
10 0 3
11 0 3
12 0 3
13 0 3
14 0 3
15 0 3
16 0 3
17 0 3
18 0 3
19 0 3
20 0 3
21 0 3
22 0 3
23 0 3
24 0 3
25 0 3
26 0 3
27 0 3
28 0 3
29 0 3
30 0 3
0 0 4
1 0 4
2 0 4
3 0 4
4 0 4
5 0 4
6 0 4
7 0 4
8 0 4
9 0 4
10 0 4
11 0 4
12 0 4
13 0 4
14 0 4
15 0 4
16 0 4
17 0 4
18 0 4
19 0 4
20 0 4
21 0 4
22 0 4
23 0 4
24 0 4
25 0 4
26 0 4
27 0 4
28 0 4
29 0 4
30 0 4
0 0 5
1 0 5
2 0 5
3 0 5
4 0 5
5 0 5
6 0 5
7 0 5
8 0 5
9 0 5
10 0 5
11 0 5
12 0 5
13 0 5
14 0 5
15 0 5
16 0 5
17 0 5
18 0 5
19 0 5
20 0 5
21 0 5
22 0 5
23 0 5
24 0 5
25 0 5
26 0 5
27 0 5
28 0 5
29 0 5
30 0 5
0 0 6
1 0 6
2 0 6
3 0 6
4 0 6
5 0 6
6 0 6
7 0 6
8 0 6
9 0 6
10 0 6
11 0 6
12 0 6
13 0 6
14 0 6
15 0 6
16 0 6
17 0 6
18 0 6
19 0 6
20 0 6
21 0 6
22 0 6
23 0 6
24 0 6
25 0 6
26 0 6
27 0 6
28 0 6
29 0 6
30 0 6
0 0 7
1 0 7
2 0 7
3 0 7
4 0 7
5 0 7
6 0 7
7 0 7
8 0 7
9 0 7
10 0 7
11 0 7
12 0 7
13 0 7
14 0 7
15 0 7
16 0 7
17 0 7
18 0 7
19 0 7
20 0 7
21 0 7
22 0 7
23 0 7
24 0 7
25 0 7
26 0 7
27 0 7
28 0 7
29 0 7
30 0 7
0 0 8
1 0 8
2 0 8
3 0 8
4 0 8
5 0 8
6 0 8
7 0 8
8 0 8
9 0 8
10 0 8
11 0 8
12 0 8
13 0 8
14 0 8
15 0 8
16 0 8
17 0 8
18 0 8
19 0 8
20 0 8
21 0 8
22 0 8
23 0 8
24 0 8
25 0 8
26 0 8
27 0 8
28 0 8
29 0 8
30 0 8
0 0 9
1 0 9
2 0 9
3 0 9
4 0 9
5 0 9
6 0 9
7 0 9
8 0 9
9 0 9
10 0 9
11 0 9
12 0 9
13 0 9
14 0 9
15 0 9
16 0 9
17 0 9
18 0 9
19 0 9
20 0 9
21 0 9
22 0 9
23 0 9
24 0 9
25 0 9
26 0 9
27 0 9
28 0 9
29 0 9
30 0 9
0 0 10
1 0 10
2 0 10
3 0 10
4 0 10
5 0 10
6 0 10
7 0 10
8 0 10
9 0 10
10 0 10
11 0 10
12 0 10
13 0 10
14 0 10
15 0 10
16 0 10
17 0 10
18 0 10
19 0 10
20 0 10
21 0 10
22 0 10
23 0 10
24 0 10
25 0 10
26 0 10
27 0 10
28 0 10
29 0 10
30 0 10

POINT_DATA 341

SCALARS U float 1
LOOKUP_TABLE default
-0.01
-0.00964552
-0.00937105
-0.00910365
-0.00883876
-0.00857484
-0.00831128
-0.00804784
-0.00778442
-0.00752098
-0.00725751
-0.00699402
-0.0067305
-0.00646697
-0.00620342
-0.00593985
-0.00567628
-0.00541271
-0.00514913
-0.00488554
-0.00462196
-0.00435837
-0.00409478
-0.0038312
-0.00356761
-0.00330402
-0.00304043
-0.00277684
-0.00251325
-0.00224966
-0.00224966
0.01
0.00964552
0.00937105
0.00910365
0.00883876
0.00857484
0.00831128
0.00804784
0.00778442
0.00752098
0.00725751
0.00699402
0.0067305
0.00646697
0.00620342
0.00593985
0.00567628
0.00541271
0.00514913
0.00488554
0.00462196
0.00435837
0.00409478
0.0038312
0.00356761
0.00330402
0.00304043
0.00277684
0.00251325
0.00224966
0.00224966
0.01
0.00972412
0.00946061
0.0091946
0.0089283
0.00866203
0.00839577
0.00812949
0.00786317
0.0075968
0.00733039
0.00706396
0.00679749
0.00653101
0.00626451
0.005998
0.00573149
0.00546497
0.00519845
0.00493192
0.00466539
0.00439886
0.00413233
0.0038658
0.00359927
0.00333274
0.00306621
0.00279968
0.00253314
0.00226661
0.00226661
0.01
0.0097177
0.00945645
0.0091926
0.00892753
0.00866187
0.00839589
0.00812972
0.00786342
0.00759706
0.00733063
0.00706418
0.00679769
0.00653119
0.00626468
0.00599816
0.00573163
0.0054651
0.00519857
0.00493204
0.0046655
0.00439896
0.00413242
0.00386588
0.00359934
0.00333281
0.00306627
0.00279973
0.00253319
0.00226665
0.00226665
0.01
0.00971558
0.00945461
0.00919157
0.00892712
0.00866181
0.00839598
0.00812986
0.00786357
0.00759718
0.00733073
0.00706425
0.00679775
0.00653123
0.00626471
0.00599818
0.00573165
0.00546512
0.00519858
0.00493204
0.0046655
0.00439896
0.00413243
0.00386589
0.00359935
0.00333281
0.00306627
0.00279973
0.00253319
0.00226665
0.00226665
0.01
0.00971554
0.00945479
0.00919196
0.00892759
0.00866226
0.00839637
0.00813017
0.0078638
0.00759735
0.00733086
0.00706434
0.00679782
0.00653128
0.00626475
0.00599821
0.00573167
0.00546513
0.00519859
0.00493205
0.00466551
0.00439897
0.00413243
0.00386589
0.00359935
0.00333281
0.00306627
0.00279973
0.00253319
0.00226665
0.00226665
0.01
0.00971732
0.00945701
0.00919387
0.00892902
0.00866327
0.00839706
0.00813064
0.00786413
0.00759758
0.00733101
0.00706445
0.00679789
0.00653134
0.00626478
0.00599823
0.00573169
0.00546514
0.0051986
0.00493205
0.00466551
0.00439897
0.00413243
0.00386589
0.00359935
0.00333281
0.00306627
0.00279973
0.00253319
0.00226665
0.00226665
0.01
0.00972228
0.009462
0.00919749
0.00893136
0.00866473
0.00839796
0.00813121
0.00786449
0.00759781
0.00733117
0.00706455
0.00679796
0.00653138
0.00626482
0.00599826
0.0057317
0.00546515
0.0051986
0.00493206
0.00466552
0.00439897
0.00413243
0.00386589
0.00359935
0.00333281
0.00306627
0.00279973
0.00253319
0.00226665
0.00226665
0.01
0.00973501
0.00947079
0.00920232
0.00893385
0.00866594
0.00839851
0.00813139
0.00786448
0.00759769
0.00733099
0.00706435
0.00679774
0.00653116
0.00626459
0.00599803
0.00573149
0.00546495
0.00519841
0.00493188
0.00466534
0.00439881
0.00413228
0.00386575
0.00359922
0.0033327
0.00306617
0.00279964
0.00253311
0.00226658
0.00226658
0.01
0.0096441
0.00935792
0.00908515
0.0088176
0.00855235
0.00828821
0.00802465
0.00776142
0.00749838
0.00723546
0.0069726
0.00670979
0.00644702
0.00618426
0.00592152
0.00565878
0.00539606
0.00513333
0.00487062
0.0046079
0.00434518
0.00408247
0.00381976
0.00355704
0.00329433
0.00303162
0.00276891
0.0025062
0.00224348
0.00224348
-0.01
-0.0096441
-0.00935792
-0.00908515
-0.0088176
-0.00855235
-0.00828821
-0.00802465
-0.00776142
-0.00749838
-0.00723546
-0.0069726
-0.00670979
-0.00644702
-0.00618426
-0.00592152
-0.00565878
-0.00539606
-0.00513333
-0.00487062
-0.0046079
-0.00434518
-0.00408247
-0.00381976
-0.00355704
-0.00329433
-0.00303162
-0.00276891
-0.0025062
-0.00224348
-0.00224348
