# vtk DataFile Version 2.0
FlowField
ASCII
DATASET STRUCTURED_GRID
DIMENSIONS 31 1 11
POINTS 341 float
0 0 0
1 0 0
2 0 0
3 0 0
4 0 0
5 0 0
6 0 0
7 0 0
8 0 0
9 0 0
10 0 0
11 0 0
12 0 0
13 0 0
14 0 0
15 0 0
16 0 0
17 0 0
18 0 0
19 0 0
20 0 0
21 0 0
22 0 0
23 0 0
24 0 0
25 0 0
26 0 0
27 0 0
28 0 0
29 0 0
30 0 0
0 0 1
1 0 1
2 0 1
3 0 1
4 0 1
5 0 1
6 0 1
7 0 1
8 0 1
9 0 1
10 0 1
11 0 1
12 0 1
13 0 1
14 0 1
15 0 1
16 0 1
17 0 1
18 0 1
19 0 1
20 0 1
21 0 1
22 0 1
23 0 1
24 0 1
25 0 1
26 0 1
27 0 1
28 0 1
29 0 1
30 0 1
0 0 2
1 0 2
2 0 2
3 0 2
4 0 2
5 0 2
6 0 2
7 0 2
8 0 2
9 0 2
10 0 2
11 0 2
12 0 2
13 0 2
14 0 2
15 0 2
16 0 2
17 0 2
18 0 2
19 0 2
20 0 2
21 0 2
22 0 2
23 0 2
24 0 2
25 0 2
26 0 2
27 0 2
28 0 2
29 0 2
30 0 2
0 0 3
1 0 3
2 0 3
3 0 3
4 0 3
5 0 3
6 0 3
7 0 3
8 0 3
9 0 3
10 0 3
11 0 3
12 0 3
13 0 3
14 0 3
15 0 3
16 0 3
17 0 3
18 0 3
19 0 3
20 0 3
21 0 3
22 0 3
23 0 3
24 0 3
25 0 3
26 0 3
27 0 3
28 0 3
29 0 3
30 0 3
0 0 4
1 0 4
2 0 4
3 0 4
4 0 4
5 0 4
6 0 4
7 0 4
8 0 4
9 0 4
10 0 4
11 0 4
12 0 4
13 0 4
14 0 4
15 0 4
16 0 4
17 0 4
18 0 4
19 0 4
20 0 4
21 0 4
22 0 4
23 0 4
24 0 4
25 0 4
26 0 4
27 0 4
28 0 4
29 0 4
30 0 4
0 0 5
1 0 5
2 0 5
3 0 5
4 0 5
5 0 5
6 0 5
7 0 5
8 0 5
9 0 5
10 0 5
11 0 5
12 0 5
13 0 5
14 0 5
15 0 5
16 0 5
17 0 5
18 0 5
19 0 5
20 0 5
21 0 5
22 0 5
23 0 5
24 0 5
25 0 5
26 0 5
27 0 5
28 0 5
29 0 5
30 0 5
0 0 6
1 0 6
2 0 6
3 0 6
4 0 6
5 0 6
6 0 6
7 0 6
8 0 6
9 0 6
10 0 6
11 0 6
12 0 6
13 0 6
14 0 6
15 0 6
16 0 6
17 0 6
18 0 6
19 0 6
20 0 6
21 0 6
22 0 6
23 0 6
24 0 6
25 0 6
26 0 6
27 0 6
28 0 6
29 0 6
30 0 6
0 0 7
1 0 7
2 0 7
3 0 7
4 0 7
5 0 7
6 0 7
7 0 7
8 0 7
9 0 7
10 0 7
11 0 7
12 0 7
13 0 7
14 0 7
15 0 7
16 0 7
17 0 7
18 0 7
19 0 7
20 0 7
21 0 7
22 0 7
23 0 7
24 0 7
25 0 7
26 0 7
27 0 7
28 0 7
29 0 7
30 0 7
0 0 8
1 0 8
2 0 8
3 0 8
4 0 8
5 0 8
6 0 8
7 0 8
8 0 8
9 0 8
10 0 8
11 0 8
12 0 8
13 0 8
14 0 8
15 0 8
16 0 8
17 0 8
18 0 8
19 0 8
20 0 8
21 0 8
22 0 8
23 0 8
24 0 8
25 0 8
26 0 8
27 0 8
28 0 8
29 0 8
30 0 8
0 0 9
1 0 9
2 0 9
3 0 9
4 0 9
5 0 9
6 0 9
7 0 9
8 0 9
9 0 9
10 0 9
11 0 9
12 0 9
13 0 9
14 0 9
15 0 9
16 0 9
17 0 9
18 0 9
19 0 9
20 0 9
21 0 9
22 0 9
23 0 9
24 0 9
25 0 9
26 0 9
27 0 9
28 0 9
29 0 9
30 0 9
0 0 10
1 0 10
2 0 10
3 0 10
4 0 10
5 0 10
6 0 10
7 0 10
8 0 10
9 0 10
10 0 10
11 0 10
12 0 10
13 0 10
14 0 10
15 0 10
16 0 10
17 0 10
18 0 10
19 0 10
20 0 10
21 0 10
22 0 10
23 0 10
24 0 10
25 0 10
26 0 10
27 0 10
28 0 10
29 0 10
30 0 10

POINT_DATA 341

SCALARS U float 1
LOOKUP_TABLE default
-0.01
-0.00964928
-0.00937493
-0.00910904
-0.00884605
-0.00858416
-0.00832266
-0.00806126
-0.00779987
-0.00753843
-0.00727695
-0.00701542
-0.00675386
-0.00649226
-0.00623065
-0.00596902
-0.00570738
-0.00544572
-0.00518407
-0.00492241
-0.00466074
-0.00439908
-0.00413741
-0.00387574
-0.00361407
-0.0033524
-0.00309073
-0.00282905
-0.00256738
-0.00230571
-0.00230571
0.01
0.00964928
0.00937493
0.00910904
0.00884605
0.00858416
0.00832266
0.00806126
0.00779987
0.00753843
0.00727695
0.00701542
0.00675386
0.00649226
0.00623065
0.00596902
0.00570738
0.00544572
0.00518407
0.00492241
0.00466074
0.00439908
0.00413741
0.00387574
0.00361407
0.0033524
0.00309073
0.00282905
0.00256738
0.00230571
0.00230571
0.01
0.00974788
0.00948653
0.00922214
0.00895737
0.00869258
0.00842777
0.0081629
0.00789795
0.00763293
0.00736786
0.00710273
0.00683756
0.00657237
0.00630716
0.00604193
0.00577669
0.00551145
0.0052462
0.00498094
0.00471568
0.00445042
0.00418516
0.0039199
0.00365464
0.00338937
0.00312411
0.00285885
0.00259358
0.00232832
0.00232832
0.01
0.00974049
0.00948181
0.00921997
0.00895664
0.00869256
0.00842805
0.0081633
0.00789837
0.00763334
0.00736823
0.00710307
0.00683788
0.00657266
0.00630742
0.00604218
0.00577692
0.00551166
0.00524639
0.00498112
0.00471585
0.00445058
0.00418531
0.00392003
0.00365476
0.00338948
0.0031242
0.00285893
0.00259365
0.00232838
0.00232838
0.01
0.00973809
0.00947978
0.00921892
0.00895631
0.00869261
0.00842826
0.00816354
0.00789859
0.00763352
0.00736838
0.00710318
0.00683796
0.00657272
0.00630747
0.00604221
0.00577694
0.00551167
0.0052464
0.00498113
0.00471586
0.00445058
0.00418531
0.00392003
0.00365476
0.00338948
0.00312421
0.00285893
0.00259365
0.00232838
0.00232838
0.01
0.00973819
0.00948022
0.00921961
0.00895706
0.00869331
0.00842885
0.008164
0.00789894
0.00763378
0.00736857
0.00710332
0.00683806
0.00657279
0.00630752
0.00604224
0.00577697
0.00551169
0.00524642
0.00498114
0.00471586
0.00445059
0.00418531
0.00392004
0.00365476
0.00338948
0.00312421
0.00285893
0.00259365
0.00232838
0.00232838
0.01
0.00974058
0.00948323
0.00922222
0.00895904
0.00869471
0.00842982
0.00816466
0.0078994
0.0076341
0.00736878
0.00710347
0.00683817
0.00657287
0.00630757
0.00604228
0.00577699
0.00551171
0.00524643
0.00498115
0.00471587
0.00445059
0.00418531
0.00392004
0.00365476
0.00338948
0.00312421
0.00285893
0.00259365
0.00232838
0.00232838
0.01
0.00974706
0.00948979
0.009227
0.00896216
0.00869667
0.00843104
0.00816544
0.0078999
0.00763442
0.007369
0.00710362
0.00683826
0.00657293
0.00630762
0.00604231
0.00577702
0.00551173
0.00524644
0.00498116
0.00471588
0.0044506
0.00418532
0.00392004
0.00365476
0.00338948
0.00312421
0.00285893
0.00259365
0.00232838
0.00232838
0.01
0.00976346
0.0095011
0.00923318
0.00896529
0.00869815
0.00843165
0.00816558
0.00789978
0.00763416
0.00736866
0.00710324
0.00683787
0.00657254
0.00630722
0.00604193
0.00577665
0.00551137
0.0052461
0.00498084
0.00471558
0.00445032
0.00418506
0.0039198
0.00365454
0.00338929
0.00312403
0.00285878
0.00259352
0.00232826
0.00232826
0.01
0.00964777
0.00935662
0.00908295
0.00881611
0.00855227
0.00828991
0.00802832
0.00776716
0.00750626
0.00724552
0.00698488
0.0067243
0.00646377
0.00620326
0.00594277
0.0056823
0.00542184
0.00516138
0.00490093
0.00464048
0.00438004
0.00411959
0.00385915
0.00359871
0.00333826
0.00307782
0.00281738
0.00255694
0.0022965
0.0022965
-0.01
-0.00964777
-0.00935662
-0.00908295
-0.00881611
-0.00855227
-0.00828991
-0.00802832
-0.00776716
-0.00750626
-0.00724552
-0.00698488
-0.0067243
-0.00646377
-0.00620326
-0.00594277
-0.0056823
-0.00542184
-0.00516138
-0.00490093
-0.00464048
-0.00438004
-0.00411959
-0.00385915
-0.00359871
-0.00333826
-0.00307782
-0.00281738
-0.00255694
-0.0022965
-0.0022965
