# vtk DataFile Version 2.0
FlowField
ASCII
DATASET STRUCTURED_GRID
DIMENSIONS 31 1 11
POINTS 341 float
0 0 0
1 0 0
2 0 0
3 0 0
4 0 0
5 0 0
6 0 0
7 0 0
8 0 0
9 0 0
10 0 0
11 0 0
12 0 0
13 0 0
14 0 0
15 0 0
16 0 0
17 0 0
18 0 0
19 0 0
20 0 0
21 0 0
22 0 0
23 0 0
24 0 0
25 0 0
26 0 0
27 0 0
28 0 0
29 0 0
30 0 0
0 0 1
1 0 1
2 0 1
3 0 1
4 0 1
5 0 1
6 0 1
7 0 1
8 0 1
9 0 1
10 0 1
11 0 1
12 0 1
13 0 1
14 0 1
15 0 1
16 0 1
17 0 1
18 0 1
19 0 1
20 0 1
21 0 1
22 0 1
23 0 1
24 0 1
25 0 1
26 0 1
27 0 1
28 0 1
29 0 1
30 0 1
0 0 2
1 0 2
2 0 2
3 0 2
4 0 2
5 0 2
6 0 2
7 0 2
8 0 2
9 0 2
10 0 2
11 0 2
12 0 2
13 0 2
14 0 2
15 0 2
16 0 2
17 0 2
18 0 2
19 0 2
20 0 2
21 0 2
22 0 2
23 0 2
24 0 2
25 0 2
26 0 2
27 0 2
28 0 2
29 0 2
30 0 2
0 0 3
1 0 3
2 0 3
3 0 3
4 0 3
5 0 3
6 0 3
7 0 3
8 0 3
9 0 3
10 0 3
11 0 3
12 0 3
13 0 3
14 0 3
15 0 3
16 0 3
17 0 3
18 0 3
19 0 3
20 0 3
21 0 3
22 0 3
23 0 3
24 0 3
25 0 3
26 0 3
27 0 3
28 0 3
29 0 3
30 0 3
0 0 4
1 0 4
2 0 4
3 0 4
4 0 4
5 0 4
6 0 4
7 0 4
8 0 4
9 0 4
10 0 4
11 0 4
12 0 4
13 0 4
14 0 4
15 0 4
16 0 4
17 0 4
18 0 4
19 0 4
20 0 4
21 0 4
22 0 4
23 0 4
24 0 4
25 0 4
26 0 4
27 0 4
28 0 4
29 0 4
30 0 4
0 0 5
1 0 5
2 0 5
3 0 5
4 0 5
5 0 5
6 0 5
7 0 5
8 0 5
9 0 5
10 0 5
11 0 5
12 0 5
13 0 5
14 0 5
15 0 5
16 0 5
17 0 5
18 0 5
19 0 5
20 0 5
21 0 5
22 0 5
23 0 5
24 0 5
25 0 5
26 0 5
27 0 5
28 0 5
29 0 5
30 0 5
0 0 6
1 0 6
2 0 6
3 0 6
4 0 6
5 0 6
6 0 6
7 0 6
8 0 6
9 0 6
10 0 6
11 0 6
12 0 6
13 0 6
14 0 6
15 0 6
16 0 6
17 0 6
18 0 6
19 0 6
20 0 6
21 0 6
22 0 6
23 0 6
24 0 6
25 0 6
26 0 6
27 0 6
28 0 6
29 0 6
30 0 6
0 0 7
1 0 7
2 0 7
3 0 7
4 0 7
5 0 7
6 0 7
7 0 7
8 0 7
9 0 7
10 0 7
11 0 7
12 0 7
13 0 7
14 0 7
15 0 7
16 0 7
17 0 7
18 0 7
19 0 7
20 0 7
21 0 7
22 0 7
23 0 7
24 0 7
25 0 7
26 0 7
27 0 7
28 0 7
29 0 7
30 0 7
0 0 8
1 0 8
2 0 8
3 0 8
4 0 8
5 0 8
6 0 8
7 0 8
8 0 8
9 0 8
10 0 8
11 0 8
12 0 8
13 0 8
14 0 8
15 0 8
16 0 8
17 0 8
18 0 8
19 0 8
20 0 8
21 0 8
22 0 8
23 0 8
24 0 8
25 0 8
26 0 8
27 0 8
28 0 8
29 0 8
30 0 8
0 0 9
1 0 9
2 0 9
3 0 9
4 0 9
5 0 9
6 0 9
7 0 9
8 0 9
9 0 9
10 0 9
11 0 9
12 0 9
13 0 9
14 0 9
15 0 9
16 0 9
17 0 9
18 0 9
19 0 9
20 0 9
21 0 9
22 0 9
23 0 9
24 0 9
25 0 9
26 0 9
27 0 9
28 0 9
29 0 9
30 0 9
0 0 10
1 0 10
2 0 10
3 0 10
4 0 10
5 0 10
6 0 10
7 0 10
8 0 10
9 0 10
10 0 10
11 0 10
12 0 10
13 0 10
14 0 10
15 0 10
16 0 10
17 0 10
18 0 10
19 0 10
20 0 10
21 0 10
22 0 10
23 0 10
24 0 10
25 0 10
26 0 10
27 0 10
28 0 10
29 0 10
30 0 10

POINT_DATA 341

SCALARS U float 1
LOOKUP_TABLE default
-0.01
-0.00963668
-0.00936103
-0.00909621
-0.00883493
-0.00857494
-0.00831537
-0.00805589
-0.00779636
-0.00753676
-0.00727707
-0.0070173
-0.00675748
-0.00649762
-0.00623772
-0.00597779
-0.00571785
-0.0054579
-0.00519793
-0.00493796
-0.00467799
-0.00441801
-0.00415803
-0.00389804
-0.00363806
-0.00337807
-0.00311809
-0.0028581
-0.00259812
-0.00233813
-0.00233813
0.01
0.00963668
0.00936103
0.00909621
0.00883493
0.00857494
0.00831537
0.00805589
0.00779636
0.00753676
0.00727707
0.0070173
0.00675748
0.00649762
0.00623772
0.00597779
0.00571785
0.0054579
0.00519793
0.00493796
0.00467799
0.00441801
0.00415803
0.00389804
0.00363806
0.00337807
0.00311809
0.0028581
0.00259812
0.00233813
0.00233813
0.01
0.00976795
0.00950873
0.0092456
0.00898192
0.00871814
0.00845427
0.00819027
0.00792614
0.00766188
0.00739754
0.00713311
0.00686863
0.0066041
0.00633955
0.00607497
0.00581037
0.00554576
0.00528115
0.00501653
0.0047519
0.00448727
0.00422264
0.00395801
0.00369337
0.00342874
0.00316411
0.00289947
0.00263484
0.0023702
0.0023702
0.01
0.0097591
0.00950321
0.00924325
0.00898134
0.00871841
0.0084549
0.00819101
0.00792688
0.00766259
0.00739819
0.00713371
0.00686918
0.00660461
0.00634002
0.0060754
0.00581078
0.00554614
0.0052815
0.00501686
0.00475221
0.00448756
0.0042229
0.00395825
0.0036936
0.00342894
0.00316428
0.00289963
0.00263497
0.00237032
0.00237032
0.01
0.00975626
0.00950091
0.00924218
0.00898115
0.00871867
0.00845531
0.00819143
0.00792725
0.00766289
0.00739842
0.00713388
0.00686931
0.00660471
0.00634008
0.00607545
0.00581081
0.00554617
0.00528152
0.00501687
0.00475222
0.00448756
0.00422291
0.00395825
0.0036936
0.00342894
0.00316429
0.00289963
0.00263497
0.00237032
0.00237032
0.01
0.00975663
0.00950182
0.00924341
0.00898242
0.0087198
0.00845623
0.00819215
0.00792779
0.00766329
0.00739871
0.0071341
0.00686946
0.00660481
0.00634016
0.00607551
0.00581085
0.0055462
0.00528154
0.00501688
0.00475223
0.00448757
0.00422291
0.00395826
0.0036936
0.00342894
0.00316429
0.00289963
0.00263497
0.00237032
0.00237032
0.01
0.00976004
0.00950615
0.00924721
0.00898532
0.00872187
0.00845768
0.00819315
0.00792848
0.00766377
0.00739904
0.00713433
0.00686962
0.00660493
0.00634024
0.00607556
0.00581089
0.00554622
0.00528156
0.0050169
0.00475224
0.00448758
0.00422292
0.00395826
0.0036936
0.00342895
0.00316429
0.00289963
0.00263497
0.00237032
0.00237032
0.01
0.00976905
0.00951536
0.00925397
0.00898976
0.00872468
0.00845945
0.00819428
0.00792921
0.00766425
0.00739936
0.00713454
0.00686977
0.00660503
0.00634031
0.00607561
0.00581092
0.00554625
0.00528158
0.00501691
0.00475224
0.00448758
0.00422292
0.00395826
0.0036936
0.00342895
0.00316429
0.00289963
0.00263497
0.00237032
0.00237032
0.01
0.00979144
0.00953079
0.00926229
0.00899384
0.00872648
0.00846003
0.0081942
0.00792878
0.00766363
0.00739864
0.00713377
0.00686898
0.00660424
0.00633954
0.00607486
0.0058102
0.00554556
0.00528092
0.00501629
0.00475166
0.00448703
0.00422241
0.00395779
0.00369317
0.00342855
0.00316393
0.00289931
0.0026347
0.00237008
0.00237008
0.01
0.00963503
0.00933393
0.00905719
0.00878998
0.00852698
0.00826606
0.00800623
0.00774702
0.00748819
0.00722958
0.00697113
0.00671276
0.00645446
0.00619621
0.00593798
0.00567977
0.00542158
0.0051634
0.00490522
0.00464705
0.00438889
0.00413072
0.00387256
0.0036144
0.00335624
0.00309808
0.00283992
0.00258176
0.0023236
0.0023236
-0.01
-0.00963503
-0.00933393
-0.00905719
-0.00878998
-0.00852698
-0.00826606
-0.00800623
-0.00774702
-0.00748819
-0.00722958
-0.00697113
-0.00671276
-0.00645446
-0.00619621
-0.00593798
-0.00567977
-0.00542158
-0.0051634
-0.00490522
-0.00464705
-0.00438889
-0.00413072
-0.00387256
-0.0036144
-0.00335624
-0.00309808
-0.00283992
-0.00258176
-0.0023236
-0.0023236
