# vtk DataFile Version 2.0
FlowField
ASCII
DATASET STRUCTURED_GRID
DIMENSIONS 31 1 11
POINTS 341 float
0 0 0
1 0 0
2 0 0
3 0 0
4 0 0
5 0 0
6 0 0
7 0 0
8 0 0
9 0 0
10 0 0
11 0 0
12 0 0
13 0 0
14 0 0
15 0 0
16 0 0
17 0 0
18 0 0
19 0 0
20 0 0
21 0 0
22 0 0
23 0 0
24 0 0
25 0 0
26 0 0
27 0 0
28 0 0
29 0 0
30 0 0
0 0 1
1 0 1
2 0 1
3 0 1
4 0 1
5 0 1
6 0 1
7 0 1
8 0 1
9 0 1
10 0 1
11 0 1
12 0 1
13 0 1
14 0 1
15 0 1
16 0 1
17 0 1
18 0 1
19 0 1
20 0 1
21 0 1
22 0 1
23 0 1
24 0 1
25 0 1
26 0 1
27 0 1
28 0 1
29 0 1
30 0 1
0 0 2
1 0 2
2 0 2
3 0 2
4 0 2
5 0 2
6 0 2
7 0 2
8 0 2
9 0 2
10 0 2
11 0 2
12 0 2
13 0 2
14 0 2
15 0 2
16 0 2
17 0 2
18 0 2
19 0 2
20 0 2
21 0 2
22 0 2
23 0 2
24 0 2
25 0 2
26 0 2
27 0 2
28 0 2
29 0 2
30 0 2
0 0 3
1 0 3
2 0 3
3 0 3
4 0 3
5 0 3
6 0 3
7 0 3
8 0 3
9 0 3
10 0 3
11 0 3
12 0 3
13 0 3
14 0 3
15 0 3
16 0 3
17 0 3
18 0 3
19 0 3
20 0 3
21 0 3
22 0 3
23 0 3
24 0 3
25 0 3
26 0 3
27 0 3
28 0 3
29 0 3
30 0 3
0 0 4
1 0 4
2 0 4
3 0 4
4 0 4
5 0 4
6 0 4
7 0 4
8 0 4
9 0 4
10 0 4
11 0 4
12 0 4
13 0 4
14 0 4
15 0 4
16 0 4
17 0 4
18 0 4
19 0 4
20 0 4
21 0 4
22 0 4
23 0 4
24 0 4
25 0 4
26 0 4
27 0 4
28 0 4
29 0 4
30 0 4
0 0 5
1 0 5
2 0 5
3 0 5
4 0 5
5 0 5
6 0 5
7 0 5
8 0 5
9 0 5
10 0 5
11 0 5
12 0 5
13 0 5
14 0 5
15 0 5
16 0 5
17 0 5
18 0 5
19 0 5
20 0 5
21 0 5
22 0 5
23 0 5
24 0 5
25 0 5
26 0 5
27 0 5
28 0 5
29 0 5
30 0 5
0 0 6
1 0 6
2 0 6
3 0 6
4 0 6
5 0 6
6 0 6
7 0 6
8 0 6
9 0 6
10 0 6
11 0 6
12 0 6
13 0 6
14 0 6
15 0 6
16 0 6
17 0 6
18 0 6
19 0 6
20 0 6
21 0 6
22 0 6
23 0 6
24 0 6
25 0 6
26 0 6
27 0 6
28 0 6
29 0 6
30 0 6
0 0 7
1 0 7
2 0 7
3 0 7
4 0 7
5 0 7
6 0 7
7 0 7
8 0 7
9 0 7
10 0 7
11 0 7
12 0 7
13 0 7
14 0 7
15 0 7
16 0 7
17 0 7
18 0 7
19 0 7
20 0 7
21 0 7
22 0 7
23 0 7
24 0 7
25 0 7
26 0 7
27 0 7
28 0 7
29 0 7
30 0 7
0 0 8
1 0 8
2 0 8
3 0 8
4 0 8
5 0 8
6 0 8
7 0 8
8 0 8
9 0 8
10 0 8
11 0 8
12 0 8
13 0 8
14 0 8
15 0 8
16 0 8
17 0 8
18 0 8
19 0 8
20 0 8
21 0 8
22 0 8
23 0 8
24 0 8
25 0 8
26 0 8
27 0 8
28 0 8
29 0 8
30 0 8
0 0 9
1 0 9
2 0 9
3 0 9
4 0 9
5 0 9
6 0 9
7 0 9
8 0 9
9 0 9
10 0 9
11 0 9
12 0 9
13 0 9
14 0 9
15 0 9
16 0 9
17 0 9
18 0 9
19 0 9
20 0 9
21 0 9
22 0 9
23 0 9
24 0 9
25 0 9
26 0 9
27 0 9
28 0 9
29 0 9
30 0 9
0 0 10
1 0 10
2 0 10
3 0 10
4 0 10
5 0 10
6 0 10
7 0 10
8 0 10
9 0 10
10 0 10
11 0 10
12 0 10
13 0 10
14 0 10
15 0 10
16 0 10
17 0 10
18 0 10
19 0 10
20 0 10
21 0 10
22 0 10
23 0 10
24 0 10
25 0 10
26 0 10
27 0 10
28 0 10
29 0 10
30 0 10

POINT_DATA 341

SCALARS U float 1
LOOKUP_TABLE default
-0.01
-0.00960381
-0.00932653
-0.00905441
-0.00878418
-0.00851471
-0.00824554
-0.0079765
-0.0077075
-0.00743851
-0.00716952
-0.00690052
-0.0066315
-0.00636248
-0.00609346
-0.00582442
-0.00555539
-0.00528635
-0.00501731
-0.00474827
-0.00447923
-0.00421019
-0.00394114
-0.0036721
-0.00340306
-0.00313401
-0.00286497
-0.00259592
-0.00232688
-0.00205783
-0.00205783
0.01
0.00960381
0.00932653
0.00905441
0.00878418
0.00851471
0.00824554
0.0079765
0.0077075
0.00743851
0.00716952
0.00690052
0.0066315
0.00636248
0.00609346
0.00582442
0.00555539
0.00528635
0.00501731
0.00474827
0.00447923
0.00421019
0.00394114
0.0036721
0.00340306
0.00313401
0.00286497
0.00259592
0.00232688
0.00205783
0.00205783
0.01
0.0096551
0.0093859
0.00911492
0.00884379
0.00857274
0.00830173
0.00803074
0.00775974
0.00748873
0.00721771
0.00694668
0.00667563
0.00640458
0.00613352
0.00586246
0.00559139
0.00532032
0.00504925
0.00477818
0.0045071
0.00423603
0.00396495
0.00369388
0.00342281
0.00315173
0.00288066
0.00260958
0.0023385
0.00206743
0.00206743
0.01
0.00965022
0.00938267
0.00911328
0.00884306
0.00857246
0.00830168
0.00803078
0.00775983
0.00748883
0.00721781
0.00694677
0.00667572
0.00640466
0.00613359
0.00586252
0.00559145
0.00532037
0.0050493
0.00477822
0.00450715
0.00423607
0.00396499
0.00369391
0.00342283
0.00315176
0.00288068
0.0026096
0.00233852
0.00206744
0.00206744
0.01
0.00964856
0.00938117
0.00911236
0.00884261
0.00857229
0.00830164
0.00803081
0.00775987
0.00748887
0.00721785
0.0069468
0.00667574
0.00640467
0.0061336
0.00586253
0.00559146
0.00532038
0.0050493
0.00477823
0.00450715
0.00423607
0.00396499
0.00369391
0.00342283
0.00315176
0.00288068
0.0026096
0.00233852
0.00206744
0.00206744
0.01
0.00964836
0.00938105
0.00911239
0.00884274
0.00857245
0.00830179
0.00803093
0.00775997
0.00748895
0.0072179
0.00694684
0.00667577
0.0064047
0.00613362
0.00586254
0.00559146
0.00532039
0.00504931
0.00477823
0.00450715
0.00423607
0.00396499
0.00369391
0.00342283
0.00315176
0.00288068
0.0026096
0.00233852
0.00206744
0.00206744
0.01
0.00964936
0.00938227
0.00911342
0.00884349
0.00857296
0.00830214
0.00803117
0.00776013
0.00748906
0.00721798
0.00694689
0.00667581
0.00640472
0.00613364
0.00586255
0.00559147
0.00532039
0.00504931
0.00477823
0.00450715
0.00423607
0.00396499
0.00369391
0.00342284
0.00315176
0.00288068
0.0026096
0.00233852
0.00206744
0.00206744
0.01
0.00965234
0.00938524
0.00911554
0.00884483
0.00857378
0.00830264
0.00803147
0.00776032
0.00748918
0.00721805
0.00694694
0.00667584
0.00640474
0.00613365
0.00586256
0.00559148
0.0053204
0.00504931
0.00477823
0.00450715
0.00423607
0.00396499
0.00369391
0.00342284
0.00315176
0.00288068
0.0026096
0.00233852
0.00206744
0.00206744
0.01
0.00966018
0.00939063
0.00911852
0.00884638
0.00857457
0.00830302
0.00803164
0.00776037
0.00748917
0.00721801
0.00694688
0.00667577
0.00640467
0.00613357
0.00586249
0.0055914
0.00532032
0.00504925
0.00477817
0.00450709
0.00423602
0.00396494
0.00369387
0.00342279
0.00315172
0.00288065
0.00260957
0.0023385
0.00206742
0.00206742
0.01
0.00960257
0.00931989
0.00904532
0.00877389
0.00850383
0.00823443
0.00796536
0.00769648
0.00742771
0.00715899
0.00689031
0.00662166
0.00635302
0.00608439
0.00581577
0.00554715
0.00527853
0.00500992
0.00474131
0.0044727
0.00420409
0.00393548
0.00366687
0.00339827
0.00312966
0.00286105
0.00259244
0.00232384
0.00205523
0.00205523
-0.01
-0.00960257
-0.00931989
-0.00904532
-0.00877389
-0.00850383
-0.00823443
-0.00796536
-0.00769648
-0.00742771
-0.00715899
-0.00689031
-0.00662166
-0.00635302
-0.00608439
-0.00581577
-0.00554715
-0.00527853
-0.00500992
-0.00474131
-0.0044727
-0.00420409
-0.00393548
-0.00366687
-0.00339827
-0.00312966
-0.00286105
-0.00259244
-0.00232384
-0.00205523
-0.00205523
