# vtk DataFile Version 2.0
FlowField
ASCII
DATASET STRUCTURED_GRID
DIMENSIONS 31 1 11
POINTS 341 float
0 0 0
1 0 0
2 0 0
3 0 0
4 0 0
5 0 0
6 0 0
7 0 0
8 0 0
9 0 0
10 0 0
11 0 0
12 0 0
13 0 0
14 0 0
15 0 0
16 0 0
17 0 0
18 0 0
19 0 0
20 0 0
21 0 0
22 0 0
23 0 0
24 0 0
25 0 0
26 0 0
27 0 0
28 0 0
29 0 0
30 0 0
0 0 1
1 0 1
2 0 1
3 0 1
4 0 1
5 0 1
6 0 1
7 0 1
8 0 1
9 0 1
10 0 1
11 0 1
12 0 1
13 0 1
14 0 1
15 0 1
16 0 1
17 0 1
18 0 1
19 0 1
20 0 1
21 0 1
22 0 1
23 0 1
24 0 1
25 0 1
26 0 1
27 0 1
28 0 1
29 0 1
30 0 1
0 0 2
1 0 2
2 0 2
3 0 2
4 0 2
5 0 2
6 0 2
7 0 2
8 0 2
9 0 2
10 0 2
11 0 2
12 0 2
13 0 2
14 0 2
15 0 2
16 0 2
17 0 2
18 0 2
19 0 2
20 0 2
21 0 2
22 0 2
23 0 2
24 0 2
25 0 2
26 0 2
27 0 2
28 0 2
29 0 2
30 0 2
0 0 3
1 0 3
2 0 3
3 0 3
4 0 3
5 0 3
6 0 3
7 0 3
8 0 3
9 0 3
10 0 3
11 0 3
12 0 3
13 0 3
14 0 3
15 0 3
16 0 3
17 0 3
18 0 3
19 0 3
20 0 3
21 0 3
22 0 3
23 0 3
24 0 3
25 0 3
26 0 3
27 0 3
28 0 3
29 0 3
30 0 3
0 0 4
1 0 4
2 0 4
3 0 4
4 0 4
5 0 4
6 0 4
7 0 4
8 0 4
9 0 4
10 0 4
11 0 4
12 0 4
13 0 4
14 0 4
15 0 4
16 0 4
17 0 4
18 0 4
19 0 4
20 0 4
21 0 4
22 0 4
23 0 4
24 0 4
25 0 4
26 0 4
27 0 4
28 0 4
29 0 4
30 0 4
0 0 5
1 0 5
2 0 5
3 0 5
4 0 5
5 0 5
6 0 5
7 0 5
8 0 5
9 0 5
10 0 5
11 0 5
12 0 5
13 0 5
14 0 5
15 0 5
16 0 5
17 0 5
18 0 5
19 0 5
20 0 5
21 0 5
22 0 5
23 0 5
24 0 5
25 0 5
26 0 5
27 0 5
28 0 5
29 0 5
30 0 5
0 0 6
1 0 6
2 0 6
3 0 6
4 0 6
5 0 6
6 0 6
7 0 6
8 0 6
9 0 6
10 0 6
11 0 6
12 0 6
13 0 6
14 0 6
15 0 6
16 0 6
17 0 6
18 0 6
19 0 6
20 0 6
21 0 6
22 0 6
23 0 6
24 0 6
25 0 6
26 0 6
27 0 6
28 0 6
29 0 6
30 0 6
0 0 7
1 0 7
2 0 7
3 0 7
4 0 7
5 0 7
6 0 7
7 0 7
8 0 7
9 0 7
10 0 7
11 0 7
12 0 7
13 0 7
14 0 7
15 0 7
16 0 7
17 0 7
18 0 7
19 0 7
20 0 7
21 0 7
22 0 7
23 0 7
24 0 7
25 0 7
26 0 7
27 0 7
28 0 7
29 0 7
30 0 7
0 0 8
1 0 8
2 0 8
3 0 8
4 0 8
5 0 8
6 0 8
7 0 8
8 0 8
9 0 8
10 0 8
11 0 8
12 0 8
13 0 8
14 0 8
15 0 8
16 0 8
17 0 8
18 0 8
19 0 8
20 0 8
21 0 8
22 0 8
23 0 8
24 0 8
25 0 8
26 0 8
27 0 8
28 0 8
29 0 8
30 0 8
0 0 9
1 0 9
2 0 9
3 0 9
4 0 9
5 0 9
6 0 9
7 0 9
8 0 9
9 0 9
10 0 9
11 0 9
12 0 9
13 0 9
14 0 9
15 0 9
16 0 9
17 0 9
18 0 9
19 0 9
20 0 9
21 0 9
22 0 9
23 0 9
24 0 9
25 0 9
26 0 9
27 0 9
28 0 9
29 0 9
30 0 9
0 0 10
1 0 10
2 0 10
3 0 10
4 0 10
5 0 10
6 0 10
7 0 10
8 0 10
9 0 10
10 0 10
11 0 10
12 0 10
13 0 10
14 0 10
15 0 10
16 0 10
17 0 10
18 0 10
19 0 10
20 0 10
21 0 10
22 0 10
23 0 10
24 0 10
25 0 10
26 0 10
27 0 10
28 0 10
29 0 10
30 0 10

POINT_DATA 341

SCALARS U float 1
LOOKUP_TABLE default
-0.01
-0.00962053
-0.0093444
-0.00907392
-0.00880551
-0.0085379
-0.00827063
-0.00800348
-0.00773637
-0.00746926
-0.00720214
-0.00693501
-0.00666786
-0.00640071
-0.00613355
-0.00586638
-0.0055992
-0.00533203
-0.00506485
-0.00479766
-0.00453048
-0.0042633
-0.00399611
-0.00372893
-0.00346174
-0.00319456
-0.00292737
-0.00266019
-0.002393
-0.00212582
-0.00212582
0.01
0.00962053
0.0093444
0.00907392
0.00880551
0.0085379
0.00827063
0.00800348
0.00773637
0.00746926
0.00720214
0.00693501
0.00666786
0.00640071
0.00613355
0.00586638
0.0055992
0.00533203
0.00506485
0.00479766
0.00453048
0.0042633
0.00399611
0.00372893
0.00346174
0.00319456
0.00292737
0.00266019
0.002393
0.00212582
0.00212582
0.01
0.00967873
0.00941144
0.00914218
0.00887274
0.00860336
0.00833402
0.00806469
0.00779535
0.00752599
0.00725661
0.00698721
0.0067178
0.00644837
0.00617894
0.00590951
0.00564006
0.00537062
0.00510117
0.00483173
0.00456228
0.00429283
0.00402338
0.00375392
0.00348447
0.00321502
0.00294557
0.00267612
0.00240667
0.00213722
0.00213722
0.01
0.00967343
0.00940795
0.00914043
0.00887198
0.0086031
0.008334
0.00806478
0.00779547
0.00752612
0.00725673
0.00698733
0.00671791
0.00644847
0.00617903
0.00590959
0.00564014
0.00537069
0.00510124
0.00483179
0.00456233
0.00429288
0.00402342
0.00375397
0.00348451
0.00321506
0.0029456
0.00267614
0.00240669
0.00213723
0.00213723
0.01
0.00967164
0.00940635
0.00913947
0.00887154
0.00860295
0.008334
0.00806483
0.00779554
0.00752618
0.00725679
0.00698737
0.00671794
0.0064485
0.00617905
0.0059096
0.00564015
0.0053707
0.00510124
0.00483179
0.00456233
0.00429288
0.00402342
0.00375397
0.00348451
0.00321506
0.0029456
0.00267614
0.00240669
0.00213723
0.00213723
0.01
0.00967148
0.0094063
0.00913958
0.00887174
0.00860318
0.0083342
0.008065
0.00779567
0.00752628
0.00725686
0.00698742
0.00671798
0.00644853
0.00617907
0.00590962
0.00564016
0.00537071
0.00510125
0.00483179
0.00456234
0.00429288
0.00402343
0.00375397
0.00348451
0.00321506
0.0029456
0.00267614
0.00240669
0.00213723
0.00213723
0.01
0.00967266
0.00940776
0.00914083
0.00887265
0.00860381
0.00833463
0.00806529
0.00779587
0.00752642
0.00725695
0.00698749
0.00671802
0.00644856
0.00617909
0.00590963
0.00564017
0.00537071
0.00510125
0.0048318
0.00456234
0.00429288
0.00402343
0.00375397
0.00348451
0.00321506
0.0029456
0.00267614
0.00240669
0.00213723
0.00213723
0.01
0.00967613
0.00941122
0.00914331
0.00887424
0.00860479
0.00833523
0.00806565
0.0077961
0.00752656
0.00725705
0.00698755
0.00671806
0.00644859
0.00617911
0.00590965
0.00564018
0.00537072
0.00510126
0.0048318
0.00456234
0.00429288
0.00402343
0.00375397
0.00348451
0.00321506
0.0029456
0.00267614
0.00240669
0.00213723
0.00213723
0.01
0.00968518
0.00941746
0.00914675
0.00887603
0.00860569
0.00833566
0.00806583
0.00779614
0.00752653
0.00725698
0.00698746
0.00671796
0.00644848
0.006179
0.00590954
0.00564008
0.00537062
0.00510117
0.00483171
0.00456226
0.00429281
0.00402336
0.00375391
0.00348446
0.00321501
0.00294556
0.00267611
0.00240666
0.00213721
0.00213721
0.01
0.00961924
0.00933621
0.0090626
0.00879265
0.00852429
0.0082567
0.0079895
0.00772253
0.00745568
0.0071889
0.00692217
0.00665547
0.00638878
0.00612211
0.00585545
0.00558879
0.00532214
0.00505549
0.00478884
0.0045222
0.00425555
0.00398891
0.00372226
0.00345562
0.00318898
0.00292233
0.00265569
0.00238904
0.0021224
0.0021224
-0.01
-0.00961924
-0.00933621
-0.0090626
-0.00879265
-0.00852429
-0.0082567
-0.0079895
-0.00772253
-0.00745568
-0.0071889
-0.00692217
-0.00665547
-0.00638878
-0.00612211
-0.00585545
-0.00558879
-0.00532214
-0.00505549
-0.00478884
-0.0045222
-0.00425555
-0.00398891
-0.00372226
-0.00345562
-0.00318898
-0.00292233
-0.00265569
-0.00238904
-0.0021224
-0.0021224
