# vtk DataFile Version 2.0
FlowField
ASCII
DATASET STRUCTURED_GRID
DIMENSIONS 31 1 11
POINTS 341 float
0 0 0
1 0 0
2 0 0
3 0 0
4 0 0
5 0 0
6 0 0
7 0 0
8 0 0
9 0 0
10 0 0
11 0 0
12 0 0
13 0 0
14 0 0
15 0 0
16 0 0
17 0 0
18 0 0
19 0 0
20 0 0
21 0 0
22 0 0
23 0 0
24 0 0
25 0 0
26 0 0
27 0 0
28 0 0
29 0 0
30 0 0
0 0 1
1 0 1
2 0 1
3 0 1
4 0 1
5 0 1
6 0 1
7 0 1
8 0 1
9 0 1
10 0 1
11 0 1
12 0 1
13 0 1
14 0 1
15 0 1
16 0 1
17 0 1
18 0 1
19 0 1
20 0 1
21 0 1
22 0 1
23 0 1
24 0 1
25 0 1
26 0 1
27 0 1
28 0 1
29 0 1
30 0 1
0 0 2
1 0 2
2 0 2
3 0 2
4 0 2
5 0 2
6 0 2
7 0 2
8 0 2
9 0 2
10 0 2
11 0 2
12 0 2
13 0 2
14 0 2
15 0 2
16 0 2
17 0 2
18 0 2
19 0 2
20 0 2
21 0 2
22 0 2
23 0 2
24 0 2
25 0 2
26 0 2
27 0 2
28 0 2
29 0 2
30 0 2
0 0 3
1 0 3
2 0 3
3 0 3
4 0 3
5 0 3
6 0 3
7 0 3
8 0 3
9 0 3
10 0 3
11 0 3
12 0 3
13 0 3
14 0 3
15 0 3
16 0 3
17 0 3
18 0 3
19 0 3
20 0 3
21 0 3
22 0 3
23 0 3
24 0 3
25 0 3
26 0 3
27 0 3
28 0 3
29 0 3
30 0 3
0 0 4
1 0 4
2 0 4
3 0 4
4 0 4
5 0 4
6 0 4
7 0 4
8 0 4
9 0 4
10 0 4
11 0 4
12 0 4
13 0 4
14 0 4
15 0 4
16 0 4
17 0 4
18 0 4
19 0 4
20 0 4
21 0 4
22 0 4
23 0 4
24 0 4
25 0 4
26 0 4
27 0 4
28 0 4
29 0 4
30 0 4
0 0 5
1 0 5
2 0 5
3 0 5
4 0 5
5 0 5
6 0 5
7 0 5
8 0 5
9 0 5
10 0 5
11 0 5
12 0 5
13 0 5
14 0 5
15 0 5
16 0 5
17 0 5
18 0 5
19 0 5
20 0 5
21 0 5
22 0 5
23 0 5
24 0 5
25 0 5
26 0 5
27 0 5
28 0 5
29 0 5
30 0 5
0 0 6
1 0 6
2 0 6
3 0 6
4 0 6
5 0 6
6 0 6
7 0 6
8 0 6
9 0 6
10 0 6
11 0 6
12 0 6
13 0 6
14 0 6
15 0 6
16 0 6
17 0 6
18 0 6
19 0 6
20 0 6
21 0 6
22 0 6
23 0 6
24 0 6
25 0 6
26 0 6
27 0 6
28 0 6
29 0 6
30 0 6
0 0 7
1 0 7
2 0 7
3 0 7
4 0 7
5 0 7
6 0 7
7 0 7
8 0 7
9 0 7
10 0 7
11 0 7
12 0 7
13 0 7
14 0 7
15 0 7
16 0 7
17 0 7
18 0 7
19 0 7
20 0 7
21 0 7
22 0 7
23 0 7
24 0 7
25 0 7
26 0 7
27 0 7
28 0 7
29 0 7
30 0 7
0 0 8
1 0 8
2 0 8
3 0 8
4 0 8
5 0 8
6 0 8
7 0 8
8 0 8
9 0 8
10 0 8
11 0 8
12 0 8
13 0 8
14 0 8
15 0 8
16 0 8
17 0 8
18 0 8
19 0 8
20 0 8
21 0 8
22 0 8
23 0 8
24 0 8
25 0 8
26 0 8
27 0 8
28 0 8
29 0 8
30 0 8
0 0 9
1 0 9
2 0 9
3 0 9
4 0 9
5 0 9
6 0 9
7 0 9
8 0 9
9 0 9
10 0 9
11 0 9
12 0 9
13 0 9
14 0 9
15 0 9
16 0 9
17 0 9
18 0 9
19 0 9
20 0 9
21 0 9
22 0 9
23 0 9
24 0 9
25 0 9
26 0 9
27 0 9
28 0 9
29 0 9
30 0 9
0 0 10
1 0 10
2 0 10
3 0 10
4 0 10
5 0 10
6 0 10
7 0 10
8 0 10
9 0 10
10 0 10
11 0 10
12 0 10
13 0 10
14 0 10
15 0 10
16 0 10
17 0 10
18 0 10
19 0 10
20 0 10
21 0 10
22 0 10
23 0 10
24 0 10
25 0 10
26 0 10
27 0 10
28 0 10
29 0 10
30 0 10

POINT_DATA 341

SCALARS U float 1
LOOKUP_TABLE default
-0.01
-0.00958075
-0.0093019
-0.00902766
-0.00875514
-0.0084833
-0.00821176
-0.00794033
-0.00766895
-0.00739759
-0.00712622
-0.00685485
-0.00658347
-0.00631209
-0.0060407
-0.00576931
-0.00549792
-0.00522652
-0.00495513
-0.00468373
-0.00441233
-0.00414093
-0.00386953
-0.00359813
-0.00332673
-0.00305533
-0.00278393
-0.00251253
-0.00224113
-0.00196973
-0.00196973
0.01
0.00958075
0.0093019
0.00902766
0.00875514
0.0084833
0.00821176
0.00794033
0.00766895
0.00739759
0.00712622
0.00685485
0.00658347
0.00631209
0.0060407
0.00576931
0.00549792
0.00522652
0.00495513
0.00468373
0.00441233
0.00414093
0.00386953
0.00359813
0.00332673
0.00305533
0.00278393
0.00251253
0.00224113
0.00196973
0.00196973
0.01
0.00962506
0.00935346
0.00908029
0.008807
0.00853378
0.00826061
0.00798747
0.00771434
0.00744119
0.00716804
0.00689488
0.00662172
0.00634854
0.00607537
0.00580219
0.00552901
0.00525582
0.00498263
0.00470945
0.00443626
0.00416307
0.00388989
0.0036167
0.00334351
0.00307032
0.00279713
0.00252394
0.00225075
0.00197756
0.00197756
0.01
0.00962064
0.00935053
0.00907877
0.0088063
0.0085335
0.00826053
0.00798749
0.00771439
0.00744126
0.00716811
0.00689495
0.00662178
0.0063486
0.00607542
0.00580224
0.00552905
0.00525586
0.00498267
0.00470948
0.00443629
0.0041631
0.00388991
0.00361672
0.00334353
0.00307034
0.00279715
0.00252396
0.00225076
0.00197757
0.00197757
0.01
0.00961912
0.00934914
0.00907791
0.00880586
0.00853331
0.00826048
0.00798749
0.00771441
0.00744129
0.00716814
0.00689497
0.0066218
0.00634861
0.00607543
0.00580224
0.00552905
0.00525586
0.00498267
0.00470948
0.00443629
0.0041631
0.00388991
0.00361672
0.00334353
0.00307034
0.00279715
0.00252396
0.00225076
0.00197757
0.00197757
0.01
0.00961891
0.00934897
0.00907787
0.00880591
0.0085334
0.00826058
0.00798758
0.00771449
0.00744135
0.00716818
0.006895
0.00662182
0.00634863
0.00607544
0.00580225
0.00552906
0.00525587
0.00498268
0.00470949
0.0044363
0.0041631
0.00388991
0.00361672
0.00334353
0.00307034
0.00279715
0.00252396
0.00225076
0.00197757
0.00197757
0.01
0.00961972
0.00934996
0.0090787
0.00880651
0.00853381
0.00826085
0.00798776
0.00771461
0.00744143
0.00716824
0.00689504
0.00662185
0.00634865
0.00607545
0.00580226
0.00552907
0.00525587
0.00498268
0.00470949
0.0044363
0.0041631
0.00388991
0.00361672
0.00334353
0.00307034
0.00279715
0.00252396
0.00225076
0.00197757
0.00197757
0.01
0.00962223
0.00935244
0.00908046
0.00880762
0.00853448
0.00826125
0.007988
0.00771475
0.00744152
0.0071683
0.00689508
0.00662187
0.00634867
0.00607547
0.00580227
0.00552907
0.00525588
0.00498268
0.00470949
0.0044363
0.00416311
0.00388991
0.00361672
0.00334353
0.00307034
0.00279715
0.00252396
0.00225076
0.00197757
0.00197757
0.01
0.00962885
0.00935699
0.00908297
0.00880893
0.00853515
0.00826158
0.00798815
0.00771481
0.00744152
0.00716827
0.00689504
0.00662182
0.00634861
0.00607541
0.00580221
0.00552902
0.00525583
0.00498264
0.00470945
0.00443626
0.00416307
0.00388988
0.00361669
0.0033435
0.00307031
0.00279712
0.00252394
0.00225075
0.00197756
0.00197756
0.01
0.00957959
0.00929671
0.00902067
0.00874726
0.008475
0.00820329
0.00793186
0.00766058
0.00738938
0.00711823
0.00684712
0.00657602
0.00630493
0.00603385
0.00576277
0.0054917
0.00522063
0.00494957
0.0046785
0.00440743
0.00413637
0.0038653
0.00359424
0.00332318
0.00305211
0.00278105
0.00250998
0.00223892
0.00196786
0.00196786
-0.01
-0.00957959
-0.00929671
-0.00902067
-0.00874726
-0.008475
-0.00820329
-0.00793186
-0.00766058
-0.00738938
-0.00711823
-0.00684712
-0.00657602
-0.00630493
-0.00603385
-0.00576277
-0.0054917
-0.00522063
-0.00494957
-0.0046785
-0.00440743
-0.00413637
-0.0038653
-0.00359424
-0.00332318
-0.00305211
-0.00278105
-0.00250998
-0.00223892
-0.00196786
-0.00196786
