# vtk DataFile Version 2.0
FlowField
ASCII
DATASET STRUCTURED_GRID
DIMENSIONS 31 1 11
POINTS 341 float
0 0 0
1 0 0
2 0 0
3 0 0
4 0 0
5 0 0
6 0 0
7 0 0
8 0 0
9 0 0
10 0 0
11 0 0
12 0 0
13 0 0
14 0 0
15 0 0
16 0 0
17 0 0
18 0 0
19 0 0
20 0 0
21 0 0
22 0 0
23 0 0
24 0 0
25 0 0
26 0 0
27 0 0
28 0 0
29 0 0
30 0 0
0 0 1
1 0 1
2 0 1
3 0 1
4 0 1
5 0 1
6 0 1
7 0 1
8 0 1
9 0 1
10 0 1
11 0 1
12 0 1
13 0 1
14 0 1
15 0 1
16 0 1
17 0 1
18 0 1
19 0 1
20 0 1
21 0 1
22 0 1
23 0 1
24 0 1
25 0 1
26 0 1
27 0 1
28 0 1
29 0 1
30 0 1
0 0 2
1 0 2
2 0 2
3 0 2
4 0 2
5 0 2
6 0 2
7 0 2
8 0 2
9 0 2
10 0 2
11 0 2
12 0 2
13 0 2
14 0 2
15 0 2
16 0 2
17 0 2
18 0 2
19 0 2
20 0 2
21 0 2
22 0 2
23 0 2
24 0 2
25 0 2
26 0 2
27 0 2
28 0 2
29 0 2
30 0 2
0 0 3
1 0 3
2 0 3
3 0 3
4 0 3
5 0 3
6 0 3
7 0 3
8 0 3
9 0 3
10 0 3
11 0 3
12 0 3
13 0 3
14 0 3
15 0 3
16 0 3
17 0 3
18 0 3
19 0 3
20 0 3
21 0 3
22 0 3
23 0 3
24 0 3
25 0 3
26 0 3
27 0 3
28 0 3
29 0 3
30 0 3
0 0 4
1 0 4
2 0 4
3 0 4
4 0 4
5 0 4
6 0 4
7 0 4
8 0 4
9 0 4
10 0 4
11 0 4
12 0 4
13 0 4
14 0 4
15 0 4
16 0 4
17 0 4
18 0 4
19 0 4
20 0 4
21 0 4
22 0 4
23 0 4
24 0 4
25 0 4
26 0 4
27 0 4
28 0 4
29 0 4
30 0 4
0 0 5
1 0 5
2 0 5
3 0 5
4 0 5
5 0 5
6 0 5
7 0 5
8 0 5
9 0 5
10 0 5
11 0 5
12 0 5
13 0 5
14 0 5
15 0 5
16 0 5
17 0 5
18 0 5
19 0 5
20 0 5
21 0 5
22 0 5
23 0 5
24 0 5
25 0 5
26 0 5
27 0 5
28 0 5
29 0 5
30 0 5
0 0 6
1 0 6
2 0 6
3 0 6
4 0 6
5 0 6
6 0 6
7 0 6
8 0 6
9 0 6
10 0 6
11 0 6
12 0 6
13 0 6
14 0 6
15 0 6
16 0 6
17 0 6
18 0 6
19 0 6
20 0 6
21 0 6
22 0 6
23 0 6
24 0 6
25 0 6
26 0 6
27 0 6
28 0 6
29 0 6
30 0 6
0 0 7
1 0 7
2 0 7
3 0 7
4 0 7
5 0 7
6 0 7
7 0 7
8 0 7
9 0 7
10 0 7
11 0 7
12 0 7
13 0 7
14 0 7
15 0 7
16 0 7
17 0 7
18 0 7
19 0 7
20 0 7
21 0 7
22 0 7
23 0 7
24 0 7
25 0 7
26 0 7
27 0 7
28 0 7
29 0 7
30 0 7
0 0 8
1 0 8
2 0 8
3 0 8
4 0 8
5 0 8
6 0 8
7 0 8
8 0 8
9 0 8
10 0 8
11 0 8
12 0 8
13 0 8
14 0 8
15 0 8
16 0 8
17 0 8
18 0 8
19 0 8
20 0 8
21 0 8
22 0 8
23 0 8
24 0 8
25 0 8
26 0 8
27 0 8
28 0 8
29 0 8
30 0 8
0 0 9
1 0 9
2 0 9
3 0 9
4 0 9
5 0 9
6 0 9
7 0 9
8 0 9
9 0 9
10 0 9
11 0 9
12 0 9
13 0 9
14 0 9
15 0 9
16 0 9
17 0 9
18 0 9
19 0 9
20 0 9
21 0 9
22 0 9
23 0 9
24 0 9
25 0 9
26 0 9
27 0 9
28 0 9
29 0 9
30 0 9
0 0 10
1 0 10
2 0 10
3 0 10
4 0 10
5 0 10
6 0 10
7 0 10
8 0 10
9 0 10
10 0 10
11 0 10
12 0 10
13 0 10
14 0 10
15 0 10
16 0 10
17 0 10
18 0 10
19 0 10
20 0 10
21 0 10
22 0 10
23 0 10
24 0 10
25 0 10
26 0 10
27 0 10
28 0 10
29 0 10
30 0 10

POINT_DATA 341

SCALARS U float 1
LOOKUP_TABLE default
-0.01
-0.00954949
-0.0092685
-0.00899155
-0.00871611
-0.00844129
-0.00816673
-0.00789228
-0.00761788
-0.0073435
-0.00706912
-0.00679474
-0.00652036
-0.00624597
-0.00597158
-0.00569719
-0.0054228
-0.0051484
-0.004874
-0.00459961
-0.00432521
-0.00405081
-0.00377641
-0.00350202
-0.00322762
-0.00295322
-0.00267882
-0.00240442
-0.00213003
-0.00185563
-0.00185563
0.01
0.00954949
0.0092685
0.00899155
0.00871611
0.00844129
0.00816673
0.00789228
0.00761788
0.0073435
0.00706912
0.00679474
0.00652036
0.00624597
0.00597158
0.00569719
0.0054228
0.0051484
0.004874
0.00459961
0.00432521
0.00405081
0.00377641
0.00350202
0.00322762
0.00295322
0.00267882
0.00240442
0.00213003
0.00185563
0.00185563
0.01
0.00958674
0.00931212
0.00903613
0.00876005
0.00848404
0.0082081
0.00793218
0.00765628
0.00738037
0.00710446
0.00682854
0.00655262
0.00627669
0.00600077
0.00572484
0.00544891
0.00517297
0.00489704
0.00462111
0.00434517
0.00406924
0.0037933
0.00351737
0.00324143
0.00296549
0.00268956
0.00241362
0.00213769
0.00186175
0.00186175
0.01
0.00958284
0.00930951
0.00903477
0.0087594
0.00848377
0.008208
0.00793217
0.0076563
0.00738041
0.0071045
0.00682858
0.00655266
0.00627673
0.0060008
0.00572487
0.00544894
0.005173
0.00489706
0.00462113
0.00434519
0.00406926
0.00379332
0.00351738
0.00324144
0.00296551
0.00268957
0.00241363
0.00213769
0.00186176
0.00186176
0.01
0.00958148
0.00930826
0.00903397
0.00875898
0.00848357
0.00820793
0.00793215
0.00765631
0.00738042
0.00710452
0.0068286
0.00655267
0.00627674
0.00600081
0.00572487
0.00544894
0.005173
0.00489707
0.00462113
0.00434519
0.00406926
0.00379332
0.00351738
0.00324144
0.00296551
0.00268957
0.00241363
0.00213769
0.00186176
0.00186176
0.01
0.00958125
0.00930805
0.00903388
0.00875897
0.00848361
0.00820798
0.00793221
0.00765635
0.00738046
0.00710454
0.00682862
0.00655269
0.00627675
0.00600082
0.00572488
0.00544894
0.00517301
0.00489707
0.00462113
0.00434519
0.00406926
0.00379332
0.00351738
0.00324144
0.00296551
0.00268957
0.00241363
0.00213769
0.00186176
0.00186176
0.01
0.00958189
0.00930882
0.00903451
0.00875943
0.00848392
0.00820818
0.00793234
0.00765644
0.00738052
0.00710458
0.00682865
0.00655271
0.00627677
0.00600083
0.00572489
0.00544895
0.00517301
0.00489707
0.00462113
0.0043452
0.00406926
0.00379332
0.00351738
0.00324144
0.00296551
0.00268957
0.00241363
0.00213769
0.00186176
0.00186176
0.01
0.00958393
0.00931083
0.00903592
0.00876031
0.00848444
0.00820849
0.00793252
0.00765655
0.00738059
0.00710463
0.00682867
0.00655272
0.00627678
0.00600083
0.00572489
0.00544895
0.00517301
0.00489707
0.00462113
0.0043452
0.00406926
0.00379332
0.00351738
0.00324144
0.00296551
0.00268957
0.00241363
0.00213769
0.00186176
0.00186176
0.01
0.00958935
0.00931455
0.00903798
0.00876138
0.00848499
0.00820877
0.00793265
0.0076566
0.0073806
0.00710461
0.00682865
0.00655269
0.00627674
0.0060008
0.00572486
0.00544892
0.00517298
0.00489704
0.00462111
0.00434517
0.00406923
0.0037933
0.00351736
0.00324143
0.00296549
0.00268956
0.00241362
0.00213769
0.00186175
0.00186175
0.01
0.00954843
0.00926467
0.00898649
0.00871045
0.00843535
0.00816069
0.00788625
0.00761193
0.00733767
0.00706346
0.00678926
0.00651508
0.00624091
0.00596674
0.00569258
0.00541842
0.00514426
0.0048701
0.00459594
0.00432179
0.00404763
0.00377347
0.00349932
0.00322516
0.00295101
0.00267685
0.00240269
0.00212854
0.00185438
0.00185438
-0.01
-0.00954843
-0.00926467
-0.00898649
-0.00871045
-0.00843535
-0.00816069
-0.00788625
-0.00761193
-0.00733767
-0.00706346
-0.00678926
-0.00651508
-0.00624091
-0.00596674
-0.00569258
-0.00541842
-0.00514426
-0.0048701
-0.00459594
-0.00432179
-0.00404763
-0.00377347
-0.00349932
-0.00322516
-0.00295101
-0.00267685
-0.00240269
-0.00212854
-0.00185438
-0.00185438
