# vtk DataFile Version 2.0
FlowField
ASCII
DATASET STRUCTURED_GRID
DIMENSIONS 31 1 11
POINTS 341 float
0 0 0
1 0 0
2 0 0
3 0 0
4 0 0
5 0 0
6 0 0
7 0 0
8 0 0
9 0 0
10 0 0
11 0 0
12 0 0
13 0 0
14 0 0
15 0 0
16 0 0
17 0 0
18 0 0
19 0 0
20 0 0
21 0 0
22 0 0
23 0 0
24 0 0
25 0 0
26 0 0
27 0 0
28 0 0
29 0 0
30 0 0
0 0 1
1 0 1
2 0 1
3 0 1
4 0 1
5 0 1
6 0 1
7 0 1
8 0 1
9 0 1
10 0 1
11 0 1
12 0 1
13 0 1
14 0 1
15 0 1
16 0 1
17 0 1
18 0 1
19 0 1
20 0 1
21 0 1
22 0 1
23 0 1
24 0 1
25 0 1
26 0 1
27 0 1
28 0 1
29 0 1
30 0 1
0 0 2
1 0 2
2 0 2
3 0 2
4 0 2
5 0 2
6 0 2
7 0 2
8 0 2
9 0 2
10 0 2
11 0 2
12 0 2
13 0 2
14 0 2
15 0 2
16 0 2
17 0 2
18 0 2
19 0 2
20 0 2
21 0 2
22 0 2
23 0 2
24 0 2
25 0 2
26 0 2
27 0 2
28 0 2
29 0 2
30 0 2
0 0 3
1 0 3
2 0 3
3 0 3
4 0 3
5 0 3
6 0 3
7 0 3
8 0 3
9 0 3
10 0 3
11 0 3
12 0 3
13 0 3
14 0 3
15 0 3
16 0 3
17 0 3
18 0 3
19 0 3
20 0 3
21 0 3
22 0 3
23 0 3
24 0 3
25 0 3
26 0 3
27 0 3
28 0 3
29 0 3
30 0 3
0 0 4
1 0 4
2 0 4
3 0 4
4 0 4
5 0 4
6 0 4
7 0 4
8 0 4
9 0 4
10 0 4
11 0 4
12 0 4
13 0 4
14 0 4
15 0 4
16 0 4
17 0 4
18 0 4
19 0 4
20 0 4
21 0 4
22 0 4
23 0 4
24 0 4
25 0 4
26 0 4
27 0 4
28 0 4
29 0 4
30 0 4
0 0 5
1 0 5
2 0 5
3 0 5
4 0 5
5 0 5
6 0 5
7 0 5
8 0 5
9 0 5
10 0 5
11 0 5
12 0 5
13 0 5
14 0 5
15 0 5
16 0 5
17 0 5
18 0 5
19 0 5
20 0 5
21 0 5
22 0 5
23 0 5
24 0 5
25 0 5
26 0 5
27 0 5
28 0 5
29 0 5
30 0 5
0 0 6
1 0 6
2 0 6
3 0 6
4 0 6
5 0 6
6 0 6
7 0 6
8 0 6
9 0 6
10 0 6
11 0 6
12 0 6
13 0 6
14 0 6
15 0 6
16 0 6
17 0 6
18 0 6
19 0 6
20 0 6
21 0 6
22 0 6
23 0 6
24 0 6
25 0 6
26 0 6
27 0 6
28 0 6
29 0 6
30 0 6
0 0 7
1 0 7
2 0 7
3 0 7
4 0 7
5 0 7
6 0 7
7 0 7
8 0 7
9 0 7
10 0 7
11 0 7
12 0 7
13 0 7
14 0 7
15 0 7
16 0 7
17 0 7
18 0 7
19 0 7
20 0 7
21 0 7
22 0 7
23 0 7
24 0 7
25 0 7
26 0 7
27 0 7
28 0 7
29 0 7
30 0 7
0 0 8
1 0 8
2 0 8
3 0 8
4 0 8
5 0 8
6 0 8
7 0 8
8 0 8
9 0 8
10 0 8
11 0 8
12 0 8
13 0 8
14 0 8
15 0 8
16 0 8
17 0 8
18 0 8
19 0 8
20 0 8
21 0 8
22 0 8
23 0 8
24 0 8
25 0 8
26 0 8
27 0 8
28 0 8
29 0 8
30 0 8
0 0 9
1 0 9
2 0 9
3 0 9
4 0 9
5 0 9
6 0 9
7 0 9
8 0 9
9 0 9
10 0 9
11 0 9
12 0 9
13 0 9
14 0 9
15 0 9
16 0 9
17 0 9
18 0 9
19 0 9
20 0 9
21 0 9
22 0 9
23 0 9
24 0 9
25 0 9
26 0 9
27 0 9
28 0 9
29 0 9
30 0 9
0 0 10
1 0 10
2 0 10
3 0 10
4 0 10
5 0 10
6 0 10
7 0 10
8 0 10
9 0 10
10 0 10
11 0 10
12 0 10
13 0 10
14 0 10
15 0 10
16 0 10
17 0 10
18 0 10
19 0 10
20 0 10
21 0 10
22 0 10
23 0 10
24 0 10
25 0 10
26 0 10
27 0 10
28 0 10
29 0 10
30 0 10

POINT_DATA 341

SCALARS U float 1
LOOKUP_TABLE default
-0.01
-0.0093788
-0.00908611
-0.00879536
-0.00850536
-0.00821567
-0.00792612
-0.00763664
-0.00734719
-0.00705775
-0.00676833
-0.0064789
-0.00618948
-0.00590006
-0.00561065
-0.00532123
-0.00503181
-0.00474239
-0.00445297
-0.00416355
-0.00387413
-0.00358471
-0.00329529
-0.00300587
-0.00271645
-0.00242703
-0.00213761
-0.00184819
-0.00155877
-0.00126935
-0.00126935
0.01
0.0093788
0.00908611
0.00879536
0.00850536
0.00821567
0.00792612
0.00763664
0.00734719
0.00705775
0.00676833
0.0064789
0.00618948
0.00590006
0.00561065
0.00532123
0.00503181
0.00474239
0.00445297
0.00416355
0.00387413
0.00358471
0.00329529
0.00300587
0.00271645
0.00242703
0.00213761
0.00184819
0.00155877
0.00126935
0.00126935
0.01
0.00939419
0.00910458
0.00881434
0.00852407
0.00823386
0.00794369
0.00765355
0.00736343
0.00707331
0.00678319
0.00649308
0.00620296
0.00591285
0.00562274
0.00533262
0.00504251
0.0047524
0.00446228
0.00417217
0.00388206
0.00359194
0.00330183
0.00301172
0.0027216
0.00243149
0.00214138
0.00185126
0.00156115
0.00127104
0.00127104
0.01
0.00939226
0.00910327
0.00881363
0.00852371
0.00823368
0.00794361
0.00765351
0.00736341
0.0070733
0.00678319
0.00649308
0.00620297
0.00591285
0.00562274
0.00533263
0.00504251
0.0047524
0.00446229
0.00417217
0.00388206
0.00359195
0.00330183
0.00301172
0.00272161
0.00243149
0.00214138
0.00185127
0.00156115
0.00127104
0.00127104
0.01
0.00939158
0.00910262
0.00881319
0.00852345
0.00823354
0.00794353
0.00765347
0.00736339
0.00707329
0.00678319
0.00649308
0.00620296
0.00591285
0.00562274
0.00533263
0.00504251
0.0047524
0.00446229
0.00417217
0.00388206
0.00359195
0.00330183
0.00301172
0.00272161
0.00243149
0.00214138
0.00185127
0.00156115
0.00127104
0.00127104
0.01
0.0093914
0.00910243
0.00881305
0.00852337
0.00823349
0.00794351
0.00765346
0.00736338
0.00707329
0.00678318
0.00649308
0.00620297
0.00591285
0.00562274
0.00533263
0.00504251
0.0047524
0.00446229
0.00417217
0.00388206
0.00359195
0.00330183
0.00301172
0.00272161
0.00243149
0.00214138
0.00185127
0.00156115
0.00127104
0.00127104
0.01
0.0093916
0.00910265
0.00881322
0.00852348
0.00823356
0.00794355
0.00765348
0.0073634
0.0070733
0.00678319
0.00649308
0.00620297
0.00591285
0.00562274
0.00533263
0.00504251
0.0047524
0.00446229
0.00417217
0.00388206
0.00359195
0.00330183
0.00301172
0.00272161
0.00243149
0.00214138
0.00185127
0.00156115
0.00127104
0.00127104
0.01
0.00939233
0.00910335
0.0088137
0.00852376
0.00823372
0.00794363
0.00765353
0.00736342
0.00707331
0.0067832
0.00649308
0.00620297
0.00591286
0.00562274
0.00533263
0.00504251
0.0047524
0.00446229
0.00417217
0.00388206
0.00359195
0.00330183
0.00301172
0.00272161
0.00243149
0.00214138
0.00185127
0.00156115
0.00127104
0.00127104
0.01
0.00939434
0.00910472
0.00881445
0.00852415
0.00823392
0.00794373
0.00765358
0.00736344
0.00707332
0.0067832
0.00649308
0.00620297
0.00591285
0.00562274
0.00533262
0.00504251
0.0047524
0.00446228
0.00417217
0.00388206
0.00359194
0.00330183
0.00301172
0.0027216
0.00243149
0.00214138
0.00185126
0.00156115
0.00127104
0.00127104
0.01
0.00937821
0.00908537
0.00879457
0.00850455
0.00821487
0.00792533
0.00763587
0.00734644
0.00705703
0.00676763
0.00647824
0.00618885
0.00589946
0.00561007
0.00532068
0.00503129
0.0047419
0.00445252
0.00416313
0.00387374
0.00358435
0.00329497
0.00300558
0.00271619
0.0024268
0.00213742
0.00184803
0.00155864
0.00126925
0.00126925
-0.01
-0.00937821
-0.00908537
-0.00879457
-0.00850455
-0.00821487
-0.00792533
-0.00763587
-0.00734644
-0.00705703
-0.00676763
-0.00647824
-0.00618885
-0.00589946
-0.00561007
-0.00532068
-0.00503129
-0.0047419
-0.00445252
-0.00416313
-0.00387374
-0.00358435
-0.00329497
-0.00300558
-0.00271619
-0.0024268
-0.00213742
-0.00184803
-0.00155864
-0.00126925
-0.00126925
