# vtk DataFile Version 2.0
FlowField
ASCII
DATASET STRUCTURED_GRID
DIMENSIONS 31 1 11
POINTS 341 float
0 0 0
1 0 0
2 0 0
3 0 0
4 0 0
5 0 0
6 0 0
7 0 0
8 0 0
9 0 0
10 0 0
11 0 0
12 0 0
13 0 0
14 0 0
15 0 0
16 0 0
17 0 0
18 0 0
19 0 0
20 0 0
21 0 0
22 0 0
23 0 0
24 0 0
25 0 0
26 0 0
27 0 0
28 0 0
29 0 0
30 0 0
0 0 1
1 0 1
2 0 1
3 0 1
4 0 1
5 0 1
6 0 1
7 0 1
8 0 1
9 0 1
10 0 1
11 0 1
12 0 1
13 0 1
14 0 1
15 0 1
16 0 1
17 0 1
18 0 1
19 0 1
20 0 1
21 0 1
22 0 1
23 0 1
24 0 1
25 0 1
26 0 1
27 0 1
28 0 1
29 0 1
30 0 1
0 0 2
1 0 2
2 0 2
3 0 2
4 0 2
5 0 2
6 0 2
7 0 2
8 0 2
9 0 2
10 0 2
11 0 2
12 0 2
13 0 2
14 0 2
15 0 2
16 0 2
17 0 2
18 0 2
19 0 2
20 0 2
21 0 2
22 0 2
23 0 2
24 0 2
25 0 2
26 0 2
27 0 2
28 0 2
29 0 2
30 0 2
0 0 3
1 0 3
2 0 3
3 0 3
4 0 3
5 0 3
6 0 3
7 0 3
8 0 3
9 0 3
10 0 3
11 0 3
12 0 3
13 0 3
14 0 3
15 0 3
16 0 3
17 0 3
18 0 3
19 0 3
20 0 3
21 0 3
22 0 3
23 0 3
24 0 3
25 0 3
26 0 3
27 0 3
28 0 3
29 0 3
30 0 3
0 0 4
1 0 4
2 0 4
3 0 4
4 0 4
5 0 4
6 0 4
7 0 4
8 0 4
9 0 4
10 0 4
11 0 4
12 0 4
13 0 4
14 0 4
15 0 4
16 0 4
17 0 4
18 0 4
19 0 4
20 0 4
21 0 4
22 0 4
23 0 4
24 0 4
25 0 4
26 0 4
27 0 4
28 0 4
29 0 4
30 0 4
0 0 5
1 0 5
2 0 5
3 0 5
4 0 5
5 0 5
6 0 5
7 0 5
8 0 5
9 0 5
10 0 5
11 0 5
12 0 5
13 0 5
14 0 5
15 0 5
16 0 5
17 0 5
18 0 5
19 0 5
20 0 5
21 0 5
22 0 5
23 0 5
24 0 5
25 0 5
26 0 5
27 0 5
28 0 5
29 0 5
30 0 5
0 0 6
1 0 6
2 0 6
3 0 6
4 0 6
5 0 6
6 0 6
7 0 6
8 0 6
9 0 6
10 0 6
11 0 6
12 0 6
13 0 6
14 0 6
15 0 6
16 0 6
17 0 6
18 0 6
19 0 6
20 0 6
21 0 6
22 0 6
23 0 6
24 0 6
25 0 6
26 0 6
27 0 6
28 0 6
29 0 6
30 0 6
0 0 7
1 0 7
2 0 7
3 0 7
4 0 7
5 0 7
6 0 7
7 0 7
8 0 7
9 0 7
10 0 7
11 0 7
12 0 7
13 0 7
14 0 7
15 0 7
16 0 7
17 0 7
18 0 7
19 0 7
20 0 7
21 0 7
22 0 7
23 0 7
24 0 7
25 0 7
26 0 7
27 0 7
28 0 7
29 0 7
30 0 7
0 0 8
1 0 8
2 0 8
3 0 8
4 0 8
5 0 8
6 0 8
7 0 8
8 0 8
9 0 8
10 0 8
11 0 8
12 0 8
13 0 8
14 0 8
15 0 8
16 0 8
17 0 8
18 0 8
19 0 8
20 0 8
21 0 8
22 0 8
23 0 8
24 0 8
25 0 8
26 0 8
27 0 8
28 0 8
29 0 8
30 0 8
0 0 9
1 0 9
2 0 9
3 0 9
4 0 9
5 0 9
6 0 9
7 0 9
8 0 9
9 0 9
10 0 9
11 0 9
12 0 9
13 0 9
14 0 9
15 0 9
16 0 9
17 0 9
18 0 9
19 0 9
20 0 9
21 0 9
22 0 9
23 0 9
24 0 9
25 0 9
26 0 9
27 0 9
28 0 9
29 0 9
30 0 9
0 0 10
1 0 10
2 0 10
3 0 10
4 0 10
5 0 10
6 0 10
7 0 10
8 0 10
9 0 10
10 0 10
11 0 10
12 0 10
13 0 10
14 0 10
15 0 10
16 0 10
17 0 10
18 0 10
19 0 10
20 0 10
21 0 10
22 0 10
23 0 10
24 0 10
25 0 10
26 0 10
27 0 10
28 0 10
29 0 10
30 0 10

POINT_DATA 341

SCALARS U float 1
LOOKUP_TABLE default
-0.01
-0.00964803
-0.00937352
-0.00910794
-0.0088454
-0.00858398
-0.00832297
-0.00806206
-0.00780114
-0.00754018
-0.00727915
-0.00701808
-0.00675697
-0.00649582
-0.00623465
-0.00597346
-0.00571226
-0.00545105
-0.00518984
-0.00492862
-0.00466739
-0.00440617
-0.00414494
-0.00388371
-0.00362248
-0.00336125
-0.00310002
-0.00283878
-0.00257755
-0.00231632
-0.00231632
0.01
0.00964803
0.00937352
0.00910794
0.0088454
0.00858398
0.00832297
0.00806206
0.00780114
0.00754018
0.00727915
0.00701808
0.00675697
0.00649582
0.00623465
0.00597346
0.00571226
0.00545105
0.00518984
0.00492862
0.00466739
0.00440617
0.00414494
0.00388371
0.00362248
0.00336125
0.00310002
0.00283878
0.00257755
0.00231632
0.00231632
0.01
0.00975322
0.00949239
0.00922835
0.0089639
0.00869941
0.00843489
0.00817029
0.00790561
0.00764084
0.00737601
0.00711112
0.00684619
0.00658123
0.00631625
0.00605126
0.00578625
0.00552123
0.00525621
0.00499118
0.00472615
0.00446111
0.00419608
0.00393104
0.00366601
0.00340097
0.00313593
0.00287089
0.00260586
0.00234082
0.00234082
0.01
0.00974553
0.0094875
0.00922614
0.00896319
0.00869944
0.00843523
0.00817075
0.00790609
0.0076413
0.00737644
0.00711151
0.00684655
0.00658156
0.00631656
0.00605154
0.00578651
0.00552147
0.00525643
0.00499139
0.00472634
0.00446129
0.00419624
0.00393119
0.00366614
0.00340109
0.00313604
0.00287099
0.00260594
0.00234089
0.00234089
0.01
0.00974303
0.00948542
0.00922508
0.00896289
0.00869953
0.00843548
0.00817103
0.00790634
0.00764151
0.0073766
0.00711164
0.00684664
0.00658163
0.00631661
0.00605157
0.00578653
0.00552149
0.00525644
0.0049914
0.00472635
0.0044613
0.00419625
0.0039312
0.00366614
0.00340109
0.00313604
0.00287099
0.00260594
0.00234089
0.00234089
0.01
0.00974319
0.00948595
0.00922588
0.00896374
0.00870031
0.00843613
0.00817154
0.00790673
0.0076418
0.00737681
0.00711179
0.00684675
0.00658171
0.00631666
0.00605161
0.00578656
0.00552151
0.00525646
0.00499141
0.00472635
0.0044613
0.00419625
0.0039312
0.00366615
0.00340109
0.00313604
0.00287099
0.00260594
0.00234089
0.00234089
0.01
0.00974578
0.00948922
0.00922872
0.0089659
0.00870185
0.0084372
0.00817227
0.00790723
0.00764214
0.00737705
0.00711196
0.00684687
0.00658179
0.00631672
0.00605165
0.00578659
0.00552153
0.00525647
0.00499142
0.00472636
0.00446131
0.00419625
0.0039312
0.00366615
0.0034011
0.00313604
0.00287099
0.00260594
0.00234089
0.00234089
0.01
0.00975277
0.00949631
0.0092339
0.00896928
0.00870398
0.00843853
0.00817312
0.00790777
0.0076425
0.00737728
0.00711211
0.00684698
0.00658187
0.00631677
0.00605169
0.00578661
0.00552155
0.00525648
0.00499142
0.00472637
0.00446131
0.00419626
0.0039312
0.00366615
0.0034011
0.00313604
0.00287099
0.00260594
0.00234089
0.00234089
0.01
0.00977037
0.00950846
0.00924052
0.00897262
0.00870554
0.00843915
0.00817323
0.0079076
0.00764218
0.00737688
0.00711167
0.00684652
0.0065814
0.00631631
0.00605124
0.00578618
0.00552113
0.00525609
0.00499105
0.00472602
0.00446099
0.00419595
0.00393092
0.00366589
0.00340087
0.00313584
0.00287081
0.00260578
0.00234075
0.00234075
0.01
0.00964649
0.00935346
0.00907928
0.00881247
0.00854891
0.00828693
0.0080258
0.00776513
0.00750475
0.00724454
0.00698443
0.0067244
0.00646442
0.00620446
0.00594453
0.00568461
0.00542471
0.00516481
0.00490491
0.00464502
0.00438513
0.00412524
0.00386536
0.00360547
0.00334559
0.00308571
0.00282582
0.00256594
0.00230606
0.00230606
-0.01
-0.00964649
-0.00935346
-0.00907928
-0.00881247
-0.00854891
-0.00828693
-0.0080258
-0.00776513
-0.00750475
-0.00724454
-0.00698443
-0.0067244
-0.00646442
-0.00620446
-0.00594453
-0.00568461
-0.00542471
-0.00516481
-0.00490491
-0.00464502
-0.00438513
-0.00412524
-0.00386536
-0.00360547
-0.00334559
-0.00308571
-0.00282582
-0.00256594
-0.00230606
-0.00230606
