# vtk DataFile Version 2.0
FlowField
ASCII
DATASET STRUCTURED_GRID
DIMENSIONS 31 1 11
POINTS 341 float
0 0 0
1 0 0
2 0 0
3 0 0
4 0 0
5 0 0
6 0 0
7 0 0
8 0 0
9 0 0
10 0 0
11 0 0
12 0 0
13 0 0
14 0 0
15 0 0
16 0 0
17 0 0
18 0 0
19 0 0
20 0 0
21 0 0
22 0 0
23 0 0
24 0 0
25 0 0
26 0 0
27 0 0
28 0 0
29 0 0
30 0 0
0 0 1
1 0 1
2 0 1
3 0 1
4 0 1
5 0 1
6 0 1
7 0 1
8 0 1
9 0 1
10 0 1
11 0 1
12 0 1
13 0 1
14 0 1
15 0 1
16 0 1
17 0 1
18 0 1
19 0 1
20 0 1
21 0 1
22 0 1
23 0 1
24 0 1
25 0 1
26 0 1
27 0 1
28 0 1
29 0 1
30 0 1
0 0 2
1 0 2
2 0 2
3 0 2
4 0 2
5 0 2
6 0 2
7 0 2
8 0 2
9 0 2
10 0 2
11 0 2
12 0 2
13 0 2
14 0 2
15 0 2
16 0 2
17 0 2
18 0 2
19 0 2
20 0 2
21 0 2
22 0 2
23 0 2
24 0 2
25 0 2
26 0 2
27 0 2
28 0 2
29 0 2
30 0 2
0 0 3
1 0 3
2 0 3
3 0 3
4 0 3
5 0 3
6 0 3
7 0 3
8 0 3
9 0 3
10 0 3
11 0 3
12 0 3
13 0 3
14 0 3
15 0 3
16 0 3
17 0 3
18 0 3
19 0 3
20 0 3
21 0 3
22 0 3
23 0 3
24 0 3
25 0 3
26 0 3
27 0 3
28 0 3
29 0 3
30 0 3
0 0 4
1 0 4
2 0 4
3 0 4
4 0 4
5 0 4
6 0 4
7 0 4
8 0 4
9 0 4
10 0 4
11 0 4
12 0 4
13 0 4
14 0 4
15 0 4
16 0 4
17 0 4
18 0 4
19 0 4
20 0 4
21 0 4
22 0 4
23 0 4
24 0 4
25 0 4
26 0 4
27 0 4
28 0 4
29 0 4
30 0 4
0 0 5
1 0 5
2 0 5
3 0 5
4 0 5
5 0 5
6 0 5
7 0 5
8 0 5
9 0 5
10 0 5
11 0 5
12 0 5
13 0 5
14 0 5
15 0 5
16 0 5
17 0 5
18 0 5
19 0 5
20 0 5
21 0 5
22 0 5
23 0 5
24 0 5
25 0 5
26 0 5
27 0 5
28 0 5
29 0 5
30 0 5
0 0 6
1 0 6
2 0 6
3 0 6
4 0 6
5 0 6
6 0 6
7 0 6
8 0 6
9 0 6
10 0 6
11 0 6
12 0 6
13 0 6
14 0 6
15 0 6
16 0 6
17 0 6
18 0 6
19 0 6
20 0 6
21 0 6
22 0 6
23 0 6
24 0 6
25 0 6
26 0 6
27 0 6
28 0 6
29 0 6
30 0 6
0 0 7
1 0 7
2 0 7
3 0 7
4 0 7
5 0 7
6 0 7
7 0 7
8 0 7
9 0 7
10 0 7
11 0 7
12 0 7
13 0 7
14 0 7
15 0 7
16 0 7
17 0 7
18 0 7
19 0 7
20 0 7
21 0 7
22 0 7
23 0 7
24 0 7
25 0 7
26 0 7
27 0 7
28 0 7
29 0 7
30 0 7
0 0 8
1 0 8
2 0 8
3 0 8
4 0 8
5 0 8
6 0 8
7 0 8
8 0 8
9 0 8
10 0 8
11 0 8
12 0 8
13 0 8
14 0 8
15 0 8
16 0 8
17 0 8
18 0 8
19 0 8
20 0 8
21 0 8
22 0 8
23 0 8
24 0 8
25 0 8
26 0 8
27 0 8
28 0 8
29 0 8
30 0 8
0 0 9
1 0 9
2 0 9
3 0 9
4 0 9
5 0 9
6 0 9
7 0 9
8 0 9
9 0 9
10 0 9
11 0 9
12 0 9
13 0 9
14 0 9
15 0 9
16 0 9
17 0 9
18 0 9
19 0 9
20 0 9
21 0 9
22 0 9
23 0 9
24 0 9
25 0 9
26 0 9
27 0 9
28 0 9
29 0 9
30 0 9
0 0 10
1 0 10
2 0 10
3 0 10
4 0 10
5 0 10
6 0 10
7 0 10
8 0 10
9 0 10
10 0 10
11 0 10
12 0 10
13 0 10
14 0 10
15 0 10
16 0 10
17 0 10
18 0 10
19 0 10
20 0 10
21 0 10
22 0 10
23 0 10
24 0 10
25 0 10
26 0 10
27 0 10
28 0 10
29 0 10
30 0 10

POINT_DATA 341

SCALARS U float 1
LOOKUP_TABLE default
-0.01
-0.00963236
-0.00935703
-0.00908784
-0.00882086
-0.00855475
-0.00828899
-0.00802335
-0.00775774
-0.00749213
-0.0072265
-0.00696086
-0.0066952
-0.00642953
-0.00616384
-0.00589815
-0.00563245
-0.00536675
-0.00510105
-0.00483534
-0.00456963
-0.00430392
-0.00403821
-0.0037725
-0.00350679
-0.00324108
-0.00297537
-0.00270966
-0.00244394
-0.00217823
-0.00217823
0.01
0.00963236
0.00935703
0.00908784
0.00882086
0.00855475
0.00828899
0.00802335
0.00775774
0.00749213
0.0072265
0.00696086
0.0066952
0.00642953
0.00616384
0.00589815
0.00563245
0.00536675
0.00510105
0.00483534
0.00456963
0.00430392
0.00403821
0.0037725
0.00350679
0.00324108
0.00297537
0.00270966
0.00244394
0.00217823
0.00217823
0.01
0.00969741
0.00943165
0.00916374
0.00889561
0.00862753
0.00835949
0.00809145
0.00782338
0.00755529
0.00728717
0.00701903
0.00675087
0.0064827
0.00621451
0.00594632
0.00567813
0.00540993
0.00514173
0.00487353
0.00460532
0.00433712
0.00406891
0.00380071
0.0035325
0.00326429
0.00299609
0.00272788
0.00245967
0.00219147
0.00219147
0.01
0.00969172
0.00942792
0.00916189
0.00889484
0.0086273
0.00835951
0.00809157
0.00782354
0.00755546
0.00728733
0.00701918
0.00675101
0.00648282
0.00621463
0.00594643
0.00567823
0.00541002
0.00514181
0.00487361
0.0046054
0.00433718
0.00406897
0.00380076
0.00353255
0.00326434
0.00299612
0.00272791
0.0024597
0.00219149
0.00219149
0.01
0.0096898
0.00942623
0.0091609
0.0088944
0.00862718
0.00835953
0.00809165
0.00782363
0.00755554
0.0072874
0.00701923
0.00675104
0.00648285
0.00621465
0.00594645
0.00567824
0.00541003
0.00514182
0.00487361
0.0046054
0.00433719
0.00406897
0.00380076
0.00353255
0.00326434
0.00299612
0.00272791
0.0024597
0.00219149
0.00219149
0.01
0.00968968
0.00942625
0.0091611
0.00889469
0.00862747
0.0083598
0.00809187
0.0078238
0.00755566
0.00728749
0.0070193
0.00675109
0.00648289
0.00621468
0.00594646
0.00567825
0.00541004
0.00514183
0.00487361
0.0046054
0.00433719
0.00406898
0.00380076
0.00353255
0.00326434
0.00299612
0.00272791
0.0024597
0.00219149
0.00219149
0.01
0.00969106
0.00942796
0.00916256
0.00889577
0.00862823
0.00836031
0.00809222
0.00782404
0.00755583
0.0072876
0.00701937
0.00675115
0.00648292
0.0062147
0.00594648
0.00567827
0.00541005
0.00514183
0.00487362
0.0046054
0.00433719
0.00406898
0.00380076
0.00353255
0.00326434
0.00299613
0.00272791
0.0024597
0.00219149
0.00219149
0.01
0.00969502
0.00943192
0.00916542
0.00889761
0.00862936
0.00836101
0.00809265
0.00782431
0.007556
0.00728772
0.00701945
0.0067512
0.00648296
0.00621473
0.0059465
0.00567828
0.00541006
0.00514184
0.00487362
0.00460541
0.00433719
0.00406898
0.00380077
0.00353255
0.00326434
0.00299613
0.00272791
0.0024597
0.00219149
0.00219149
0.01
0.0097053
0.00943901
0.00916932
0.00889963
0.00863037
0.00836148
0.00809284
0.00782434
0.00755595
0.00728762
0.00701933
0.00675106
0.00648282
0.00621458
0.00594636
0.00567814
0.00540993
0.00514172
0.00487351
0.0046053
0.00433709
0.00406889
0.00380068
0.00353247
0.00326427
0.00299606
0.00272786
0.00245965
0.00219145
0.00219145
0.01
0.00963102
0.00934724
0.00907419
0.00880532
0.00853827
0.0082721
0.0080064
0.00774095
0.00747564
0.00721042
0.00694525
0.00668012
0.00641501
0.00614992
0.00588484
0.00561976
0.00535469
0.00508962
0.00482456
0.00455949
0.00429443
0.00402937
0.00376431
0.00349925
0.00323419
0.00296913
0.00270406
0.002439
0.00217394
0.00217394
-0.01
-0.00963102
-0.00934724
-0.00907419
-0.00880532
-0.00853827
-0.0082721
-0.0080064
-0.00774095
-0.00747564
-0.00721042
-0.00694525
-0.00668012
-0.00641501
-0.00614992
-0.00588484
-0.00561976
-0.00535469
-0.00508962
-0.00482456
-0.00455949
-0.00429443
-0.00402937
-0.00376431
-0.00349925
-0.00323419
-0.00296913
-0.00270406
-0.002439
-0.00217394
-0.00217394
