# vtk DataFile Version 2.0
FlowField
ASCII
DATASET STRUCTURED_GRID
DIMENSIONS 31 1 11
POINTS 341 float
0 0 0
1 0 0
2 0 0
3 0 0
4 0 0
5 0 0
6 0 0
7 0 0
8 0 0
9 0 0
10 0 0
11 0 0
12 0 0
13 0 0
14 0 0
15 0 0
16 0 0
17 0 0
18 0 0
19 0 0
20 0 0
21 0 0
22 0 0
23 0 0
24 0 0
25 0 0
26 0 0
27 0 0
28 0 0
29 0 0
30 0 0
0 0 1
1 0 1
2 0 1
3 0 1
4 0 1
5 0 1
6 0 1
7 0 1
8 0 1
9 0 1
10 0 1
11 0 1
12 0 1
13 0 1
14 0 1
15 0 1
16 0 1
17 0 1
18 0 1
19 0 1
20 0 1
21 0 1
22 0 1
23 0 1
24 0 1
25 0 1
26 0 1
27 0 1
28 0 1
29 0 1
30 0 1
0 0 2
1 0 2
2 0 2
3 0 2
4 0 2
5 0 2
6 0 2
7 0 2
8 0 2
9 0 2
10 0 2
11 0 2
12 0 2
13 0 2
14 0 2
15 0 2
16 0 2
17 0 2
18 0 2
19 0 2
20 0 2
21 0 2
22 0 2
23 0 2
24 0 2
25 0 2
26 0 2
27 0 2
28 0 2
29 0 2
30 0 2
0 0 3
1 0 3
2 0 3
3 0 3
4 0 3
5 0 3
6 0 3
7 0 3
8 0 3
9 0 3
10 0 3
11 0 3
12 0 3
13 0 3
14 0 3
15 0 3
16 0 3
17 0 3
18 0 3
19 0 3
20 0 3
21 0 3
22 0 3
23 0 3
24 0 3
25 0 3
26 0 3
27 0 3
28 0 3
29 0 3
30 0 3
0 0 4
1 0 4
2 0 4
3 0 4
4 0 4
5 0 4
6 0 4
7 0 4
8 0 4
9 0 4
10 0 4
11 0 4
12 0 4
13 0 4
14 0 4
15 0 4
16 0 4
17 0 4
18 0 4
19 0 4
20 0 4
21 0 4
22 0 4
23 0 4
24 0 4
25 0 4
26 0 4
27 0 4
28 0 4
29 0 4
30 0 4
0 0 5
1 0 5
2 0 5
3 0 5
4 0 5
5 0 5
6 0 5
7 0 5
8 0 5
9 0 5
10 0 5
11 0 5
12 0 5
13 0 5
14 0 5
15 0 5
16 0 5
17 0 5
18 0 5
19 0 5
20 0 5
21 0 5
22 0 5
23 0 5
24 0 5
25 0 5
26 0 5
27 0 5
28 0 5
29 0 5
30 0 5
0 0 6
1 0 6
2 0 6
3 0 6
4 0 6
5 0 6
6 0 6
7 0 6
8 0 6
9 0 6
10 0 6
11 0 6
12 0 6
13 0 6
14 0 6
15 0 6
16 0 6
17 0 6
18 0 6
19 0 6
20 0 6
21 0 6
22 0 6
23 0 6
24 0 6
25 0 6
26 0 6
27 0 6
28 0 6
29 0 6
30 0 6
0 0 7
1 0 7
2 0 7
3 0 7
4 0 7
5 0 7
6 0 7
7 0 7
8 0 7
9 0 7
10 0 7
11 0 7
12 0 7
13 0 7
14 0 7
15 0 7
16 0 7
17 0 7
18 0 7
19 0 7
20 0 7
21 0 7
22 0 7
23 0 7
24 0 7
25 0 7
26 0 7
27 0 7
28 0 7
29 0 7
30 0 7
0 0 8
1 0 8
2 0 8
3 0 8
4 0 8
5 0 8
6 0 8
7 0 8
8 0 8
9 0 8
10 0 8
11 0 8
12 0 8
13 0 8
14 0 8
15 0 8
16 0 8
17 0 8
18 0 8
19 0 8
20 0 8
21 0 8
22 0 8
23 0 8
24 0 8
25 0 8
26 0 8
27 0 8
28 0 8
29 0 8
30 0 8
0 0 9
1 0 9
2 0 9
3 0 9
4 0 9
5 0 9
6 0 9
7 0 9
8 0 9
9 0 9
10 0 9
11 0 9
12 0 9
13 0 9
14 0 9
15 0 9
16 0 9
17 0 9
18 0 9
19 0 9
20 0 9
21 0 9
22 0 9
23 0 9
24 0 9
25 0 9
26 0 9
27 0 9
28 0 9
29 0 9
30 0 9
0 0 10
1 0 10
2 0 10
3 0 10
4 0 10
5 0 10
6 0 10
7 0 10
8 0 10
9 0 10
10 0 10
11 0 10
12 0 10
13 0 10
14 0 10
15 0 10
16 0 10
17 0 10
18 0 10
19 0 10
20 0 10
21 0 10
22 0 10
23 0 10
24 0 10
25 0 10
26 0 10
27 0 10
28 0 10
29 0 10
30 0 10

POINT_DATA 341

SCALARS U float 1
LOOKUP_TABLE default
-0.01
-0.00950764
-0.00922378
-0.00894333
-0.00866418
-0.00838555
-0.00810716
-0.00782887
-0.00755063
-0.0072724
-0.00699418
-0.00671596
-0.00643774
-0.00615952
-0.0058813
-0.00560308
-0.00532485
-0.00504663
-0.0047684
-0.00449017
-0.00421195
-0.00393372
-0.00365549
-0.00337727
-0.00309904
-0.00282081
-0.00254259
-0.00226436
-0.00198613
-0.0017079
-0.0017079
0.01
0.00950764
0.00922378
0.00894333
0.00866418
0.00838555
0.00810716
0.00782887
0.00755063
0.0072724
0.00699418
0.00671596
0.00643774
0.00615952
0.0058813
0.00560308
0.00532485
0.00504663
0.0047684
0.00449017
0.00421195
0.00393372
0.00365549
0.00337727
0.00309904
0.00282081
0.00254259
0.00226436
0.00198613
0.0017079
0.0017079
0.01
0.00953773
0.00925927
0.00897966
0.00869999
0.00842039
0.00814086
0.00786135
0.00758186
0.00730237
0.00702288
0.00674339
0.0064639
0.0061844
0.00590491
0.00562541
0.00534591
0.00506641
0.00478691
0.00450741
0.00422791
0.00394841
0.00366891
0.00338941
0.00310991
0.00283041
0.00255091
0.00227141
0.00199191
0.00171241
0.00171241
0.01
0.0095344
0.00925703
0.00897848
0.00869941
0.00842013
0.00814075
0.00786132
0.00758186
0.00730239
0.00702291
0.00674342
0.00646392
0.00618443
0.00590493
0.00562543
0.00534593
0.00506643
0.00478693
0.00450743
0.00422793
0.00394842
0.00366892
0.00338942
0.00310992
0.00283042
0.00255092
0.00227141
0.00199191
0.00171241
0.00171241
0.01
0.00953323
0.00925594
0.00897777
0.00869902
0.00841994
0.00814066
0.00786129
0.00758186
0.00730239
0.00702291
0.00674342
0.00646393
0.00618443
0.00590493
0.00562543
0.00534593
0.00506643
0.00478693
0.00450743
0.00422793
0.00394843
0.00366892
0.00338942
0.00310992
0.00283042
0.00255092
0.00227141
0.00199191
0.00171241
0.00171241
0.01
0.009533
0.00925571
0.00897764
0.00869897
0.00841994
0.00814068
0.00786131
0.00758188
0.00730241
0.00702293
0.00674344
0.00646394
0.00618444
0.00590494
0.00562544
0.00534594
0.00506643
0.00478693
0.00450743
0.00422793
0.00394843
0.00366892
0.00338942
0.00310992
0.00283042
0.00255092
0.00227141
0.00199191
0.00171241
0.00171241
0.01
0.00953348
0.00925628
0.0089781
0.00869929
0.00842015
0.00814082
0.0078614
0.00758194
0.00730245
0.00702295
0.00674345
0.00646395
0.00618445
0.00590494
0.00562544
0.00534594
0.00506644
0.00478693
0.00450743
0.00422793
0.00394843
0.00366892
0.00338942
0.00310992
0.00283042
0.00255092
0.00227141
0.00199191
0.00171241
0.00171241
0.01
0.00953506
0.00925782
0.00897918
0.00869996
0.00842054
0.00814105
0.00786153
0.00758201
0.0073025
0.00702298
0.00674347
0.00646396
0.00618445
0.00590495
0.00562544
0.00534594
0.00506644
0.00478693
0.00450743
0.00422793
0.00394843
0.00366892
0.00338942
0.00310992
0.00283042
0.00255092
0.00227141
0.00199191
0.00171241
0.00171241
0.01
0.00953931
0.00926074
0.00898078
0.0087008
0.00842097
0.00814126
0.00786164
0.00758206
0.00730251
0.00702298
0.00674346
0.00646394
0.00618444
0.00590493
0.00562542
0.00534592
0.00506642
0.00478692
0.00450741
0.00422791
0.00394841
0.00366891
0.00338941
0.00310991
0.00283041
0.00255091
0.00227141
0.00199191
0.00171241
0.00171241
0.01
0.00950669
0.00922117
0.00893999
0.00866049
0.00838171
0.00810326
0.00782499
0.00754681
0.00726867
0.00699056
0.00671246
0.00643438
0.0061563
0.00587822
0.00560015
0.00532208
0.00504401
0.00476594
0.00448787
0.0042098
0.00393173
0.00365366
0.00337559
0.00309752
0.00281945
0.00254138
0.00226331
0.00198525
0.00170718
0.00170718
-0.01
-0.00950669
-0.00922117
-0.00893999
-0.00866049
-0.00838171
-0.00810326
-0.00782499
-0.00754681
-0.00726867
-0.00699056
-0.00671246
-0.00643438
-0.0061563
-0.00587822
-0.00560015
-0.00532208
-0.00504401
-0.00476594
-0.00448787
-0.0042098
-0.00393173
-0.00365366
-0.00337559
-0.00309752
-0.00281945
-0.00254138
-0.00226331
-0.00198525
-0.00170718
-0.00170718
