# vtk DataFile Version 2.0
FlowField
ASCII
DATASET STRUCTURED_GRID
DIMENSIONS 31 1 11
POINTS 341 float
0 0 0
1 0 0
2 0 0
3 0 0
4 0 0
5 0 0
6 0 0
7 0 0
8 0 0
9 0 0
10 0 0
11 0 0
12 0 0
13 0 0
14 0 0
15 0 0
16 0 0
17 0 0
18 0 0
19 0 0
20 0 0
21 0 0
22 0 0
23 0 0
24 0 0
25 0 0
26 0 0
27 0 0
28 0 0
29 0 0
30 0 0
0 0 1
1 0 1
2 0 1
3 0 1
4 0 1
5 0 1
6 0 1
7 0 1
8 0 1
9 0 1
10 0 1
11 0 1
12 0 1
13 0 1
14 0 1
15 0 1
16 0 1
17 0 1
18 0 1
19 0 1
20 0 1
21 0 1
22 0 1
23 0 1
24 0 1
25 0 1
26 0 1
27 0 1
28 0 1
29 0 1
30 0 1
0 0 2
1 0 2
2 0 2
3 0 2
4 0 2
5 0 2
6 0 2
7 0 2
8 0 2
9 0 2
10 0 2
11 0 2
12 0 2
13 0 2
14 0 2
15 0 2
16 0 2
17 0 2
18 0 2
19 0 2
20 0 2
21 0 2
22 0 2
23 0 2
24 0 2
25 0 2
26 0 2
27 0 2
28 0 2
29 0 2
30 0 2
0 0 3
1 0 3
2 0 3
3 0 3
4 0 3
5 0 3
6 0 3
7 0 3
8 0 3
9 0 3
10 0 3
11 0 3
12 0 3
13 0 3
14 0 3
15 0 3
16 0 3
17 0 3
18 0 3
19 0 3
20 0 3
21 0 3
22 0 3
23 0 3
24 0 3
25 0 3
26 0 3
27 0 3
28 0 3
29 0 3
30 0 3
0 0 4
1 0 4
2 0 4
3 0 4
4 0 4
5 0 4
6 0 4
7 0 4
8 0 4
9 0 4
10 0 4
11 0 4
12 0 4
13 0 4
14 0 4
15 0 4
16 0 4
17 0 4
18 0 4
19 0 4
20 0 4
21 0 4
22 0 4
23 0 4
24 0 4
25 0 4
26 0 4
27 0 4
28 0 4
29 0 4
30 0 4
0 0 5
1 0 5
2 0 5
3 0 5
4 0 5
5 0 5
6 0 5
7 0 5
8 0 5
9 0 5
10 0 5
11 0 5
12 0 5
13 0 5
14 0 5
15 0 5
16 0 5
17 0 5
18 0 5
19 0 5
20 0 5
21 0 5
22 0 5
23 0 5
24 0 5
25 0 5
26 0 5
27 0 5
28 0 5
29 0 5
30 0 5
0 0 6
1 0 6
2 0 6
3 0 6
4 0 6
5 0 6
6 0 6
7 0 6
8 0 6
9 0 6
10 0 6
11 0 6
12 0 6
13 0 6
14 0 6
15 0 6
16 0 6
17 0 6
18 0 6
19 0 6
20 0 6
21 0 6
22 0 6
23 0 6
24 0 6
25 0 6
26 0 6
27 0 6
28 0 6
29 0 6
30 0 6
0 0 7
1 0 7
2 0 7
3 0 7
4 0 7
5 0 7
6 0 7
7 0 7
8 0 7
9 0 7
10 0 7
11 0 7
12 0 7
13 0 7
14 0 7
15 0 7
16 0 7
17 0 7
18 0 7
19 0 7
20 0 7
21 0 7
22 0 7
23 0 7
24 0 7
25 0 7
26 0 7
27 0 7
28 0 7
29 0 7
30 0 7
0 0 8
1 0 8
2 0 8
3 0 8
4 0 8
5 0 8
6 0 8
7 0 8
8 0 8
9 0 8
10 0 8
11 0 8
12 0 8
13 0 8
14 0 8
15 0 8
16 0 8
17 0 8
18 0 8
19 0 8
20 0 8
21 0 8
22 0 8
23 0 8
24 0 8
25 0 8
26 0 8
27 0 8
28 0 8
29 0 8
30 0 8
0 0 9
1 0 9
2 0 9
3 0 9
4 0 9
5 0 9
6 0 9
7 0 9
8 0 9
9 0 9
10 0 9
11 0 9
12 0 9
13 0 9
14 0 9
15 0 9
16 0 9
17 0 9
18 0 9
19 0 9
20 0 9
21 0 9
22 0 9
23 0 9
24 0 9
25 0 9
26 0 9
27 0 9
28 0 9
29 0 9
30 0 9
0 0 10
1 0 10
2 0 10
3 0 10
4 0 10
5 0 10
6 0 10
7 0 10
8 0 10
9 0 10
10 0 10
11 0 10
12 0 10
13 0 10
14 0 10
15 0 10
16 0 10
17 0 10
18 0 10
19 0 10
20 0 10
21 0 10
22 0 10
23 0 10
24 0 10
25 0 10
26 0 10
27 0 10
28 0 10
29 0 10
30 0 10

POINT_DATA 341

SCALARS U float 1
LOOKUP_TABLE default
-0.01
-0.0096404
-0.0093656
-0.00909742
-0.0088316
-0.00856669
-0.00830214
-0.00803772
-0.00777332
-0.00750891
-0.00724448
-0.00698003
-0.00671555
-0.00645106
-0.00618656
-0.00592205
-0.00565753
-0.00539301
-0.00512848
-0.00486395
-0.00459942
-0.00433488
-0.00407035
-0.00380582
-0.00354128
-0.00327675
-0.00301221
-0.00274767
-0.00248314
-0.0022186
-0.0022186
0.01
0.0096404
0.0093656
0.00909742
0.0088316
0.00856669
0.00830214
0.00803772
0.00777332
0.00750891
0.00724448
0.00698003
0.00671555
0.00645106
0.00618656
0.00592205
0.00565753
0.00539301
0.00512848
0.00486395
0.00459942
0.00433488
0.00407035
0.00380582
0.00354128
0.00327675
0.00301221
0.00274767
0.00248314
0.0022186
0.0022186
0.01
0.00971225
0.00944773
0.00918088
0.00891378
0.00864671
0.00837968
0.00811263
0.00784554
0.00757843
0.00731128
0.0070441
0.0067769
0.00650969
0.00624246
0.00597523
0.00570799
0.00544074
0.00517349
0.00490624
0.00463899
0.00437174
0.00410448
0.00383723
0.00356997
0.00330271
0.00303546
0.0027682
0.00250095
0.00223369
0.00223369
0.01
0.00970618
0.00944378
0.00917895
0.008913
0.00864651
0.00837974
0.0081128
0.00784575
0.00757864
0.00731148
0.00704428
0.00677707
0.00650984
0.0062426
0.00597536
0.00570811
0.00544085
0.0051736
0.00490634
0.00463908
0.00437182
0.00410455
0.00383729
0.00357003
0.00330277
0.00303551
0.00276824
0.00250098
0.00223372
0.00223372
0.01
0.00970416
0.00944201
0.00917794
0.00891258
0.00864642
0.0083798
0.00811291
0.00784587
0.00757874
0.00731156
0.00704435
0.00677712
0.00650988
0.00624263
0.00597538
0.00570812
0.00544086
0.0051736
0.00490634
0.00463908
0.00437182
0.00410456
0.00383729
0.00357003
0.00330277
0.00303551
0.00276824
0.00250098
0.00223372
0.00223372
0.01
0.00970408
0.0094421
0.00917823
0.00891295
0.00864679
0.00838012
0.00811317
0.00784607
0.00757889
0.00731167
0.00704443
0.00677718
0.00650992
0.00624266
0.0059754
0.00570814
0.00544087
0.00517361
0.00490635
0.00463908
0.00437182
0.00410456
0.0038373
0.00357003
0.00330277
0.00303551
0.00276824
0.00250098
0.00223372
0.00223372
0.01
0.00970566
0.00944406
0.00917991
0.00891421
0.00864767
0.00838072
0.00811358
0.00784635
0.00757908
0.0073118
0.00704452
0.00677724
0.00650996
0.00624269
0.00597542
0.00570815
0.00544088
0.00517362
0.00490635
0.00463909
0.00437182
0.00410456
0.0038373
0.00357003
0.00330277
0.00303551
0.00276824
0.00250098
0.00223372
0.00223372
0.01
0.00971012
0.00944854
0.00918315
0.0089163
0.00864897
0.00838152
0.00811408
0.00784666
0.00757929
0.00731194
0.00704461
0.0067773
0.00651001
0.00624272
0.00597544
0.00570817
0.00544089
0.00517362
0.00490636
0.00463909
0.00437183
0.00410456
0.0038373
0.00357003
0.00330277
0.00303551
0.00276824
0.00250098
0.00223372
0.00223372
0.01
0.00972162
0.00945648
0.00918752
0.00891855
0.00865008
0.00838204
0.00811427
0.00784668
0.0075792
0.0073118
0.00704445
0.00677712
0.00650982
0.00624254
0.00597526
0.00570799
0.00544073
0.00517347
0.00490621
0.00463895
0.0043717
0.00410444
0.00383719
0.00356993
0.00330268
0.00303543
0.00276818
0.00250092
0.00223367
0.00223367
0.01
0.00963902
0.00935416
0.00908137
0.00881328
0.00854724
0.00828221
0.00801769
0.00775346
0.0074894
0.00722545
0.00696155
0.0066977
0.00643387
0.00617006
0.00590626
0.00564247
0.00537868
0.0051149
0.00485112
0.00458735
0.00432357
0.0040598
0.00379603
0.00353225
0.00326848
0.00300471
0.00274094
0.00247717
0.00221339
0.00221339
-0.01
-0.00963902
-0.00935416
-0.00908137
-0.00881328
-0.00854724
-0.00828221
-0.00801769
-0.00775346
-0.0074894
-0.00722545
-0.00696155
-0.0066977
-0.00643387
-0.00617006
-0.00590626
-0.00564247
-0.00537868
-0.0051149
-0.00485112
-0.00458735
-0.00432357
-0.0040598
-0.00379603
-0.00353225
-0.00326848
-0.00300471
-0.00274094
-0.00247717
-0.00221339
-0.00221339
