# vtk DataFile Version 2.0
FlowField
ASCII
DATASET STRUCTURED_GRID
DIMENSIONS 31 1 11
POINTS 341 float
0 0 0
1 0 0
2 0 0
3 0 0
4 0 0
5 0 0
6 0 0
7 0 0
8 0 0
9 0 0
10 0 0
11 0 0
12 0 0
13 0 0
14 0 0
15 0 0
16 0 0
17 0 0
18 0 0
19 0 0
20 0 0
21 0 0
22 0 0
23 0 0
24 0 0
25 0 0
26 0 0
27 0 0
28 0 0
29 0 0
30 0 0
0 0 1
1 0 1
2 0 1
3 0 1
4 0 1
5 0 1
6 0 1
7 0 1
8 0 1
9 0 1
10 0 1
11 0 1
12 0 1
13 0 1
14 0 1
15 0 1
16 0 1
17 0 1
18 0 1
19 0 1
20 0 1
21 0 1
22 0 1
23 0 1
24 0 1
25 0 1
26 0 1
27 0 1
28 0 1
29 0 1
30 0 1
0 0 2
1 0 2
2 0 2
3 0 2
4 0 2
5 0 2
6 0 2
7 0 2
8 0 2
9 0 2
10 0 2
11 0 2
12 0 2
13 0 2
14 0 2
15 0 2
16 0 2
17 0 2
18 0 2
19 0 2
20 0 2
21 0 2
22 0 2
23 0 2
24 0 2
25 0 2
26 0 2
27 0 2
28 0 2
29 0 2
30 0 2
0 0 3
1 0 3
2 0 3
3 0 3
4 0 3
5 0 3
6 0 3
7 0 3
8 0 3
9 0 3
10 0 3
11 0 3
12 0 3
13 0 3
14 0 3
15 0 3
16 0 3
17 0 3
18 0 3
19 0 3
20 0 3
21 0 3
22 0 3
23 0 3
24 0 3
25 0 3
26 0 3
27 0 3
28 0 3
29 0 3
30 0 3
0 0 4
1 0 4
2 0 4
3 0 4
4 0 4
5 0 4
6 0 4
7 0 4
8 0 4
9 0 4
10 0 4
11 0 4
12 0 4
13 0 4
14 0 4
15 0 4
16 0 4
17 0 4
18 0 4
19 0 4
20 0 4
21 0 4
22 0 4
23 0 4
24 0 4
25 0 4
26 0 4
27 0 4
28 0 4
29 0 4
30 0 4
0 0 5
1 0 5
2 0 5
3 0 5
4 0 5
5 0 5
6 0 5
7 0 5
8 0 5
9 0 5
10 0 5
11 0 5
12 0 5
13 0 5
14 0 5
15 0 5
16 0 5
17 0 5
18 0 5
19 0 5
20 0 5
21 0 5
22 0 5
23 0 5
24 0 5
25 0 5
26 0 5
27 0 5
28 0 5
29 0 5
30 0 5
0 0 6
1 0 6
2 0 6
3 0 6
4 0 6
5 0 6
6 0 6
7 0 6
8 0 6
9 0 6
10 0 6
11 0 6
12 0 6
13 0 6
14 0 6
15 0 6
16 0 6
17 0 6
18 0 6
19 0 6
20 0 6
21 0 6
22 0 6
23 0 6
24 0 6
25 0 6
26 0 6
27 0 6
28 0 6
29 0 6
30 0 6
0 0 7
1 0 7
2 0 7
3 0 7
4 0 7
5 0 7
6 0 7
7 0 7
8 0 7
9 0 7
10 0 7
11 0 7
12 0 7
13 0 7
14 0 7
15 0 7
16 0 7
17 0 7
18 0 7
19 0 7
20 0 7
21 0 7
22 0 7
23 0 7
24 0 7
25 0 7
26 0 7
27 0 7
28 0 7
29 0 7
30 0 7
0 0 8
1 0 8
2 0 8
3 0 8
4 0 8
5 0 8
6 0 8
7 0 8
8 0 8
9 0 8
10 0 8
11 0 8
12 0 8
13 0 8
14 0 8
15 0 8
16 0 8
17 0 8
18 0 8
19 0 8
20 0 8
21 0 8
22 0 8
23 0 8
24 0 8
25 0 8
26 0 8
27 0 8
28 0 8
29 0 8
30 0 8
0 0 9
1 0 9
2 0 9
3 0 9
4 0 9
5 0 9
6 0 9
7 0 9
8 0 9
9 0 9
10 0 9
11 0 9
12 0 9
13 0 9
14 0 9
15 0 9
16 0 9
17 0 9
18 0 9
19 0 9
20 0 9
21 0 9
22 0 9
23 0 9
24 0 9
25 0 9
26 0 9
27 0 9
28 0 9
29 0 9
30 0 9
0 0 10
1 0 10
2 0 10
3 0 10
4 0 10
5 0 10
6 0 10
7 0 10
8 0 10
9 0 10
10 0 10
11 0 10
12 0 10
13 0 10
14 0 10
15 0 10
16 0 10
17 0 10
18 0 10
19 0 10
20 0 10
21 0 10
22 0 10
23 0 10
24 0 10
25 0 10
26 0 10
27 0 10
28 0 10
29 0 10
30 0 10

POINT_DATA 341

SCALARS U float 1
LOOKUP_TABLE default
-0.01
-0.00945208
-0.00916441
-0.00887947
-0.00859556
-0.00831208
-0.00802879
-0.0077456
-0.00746244
-0.0071793
-0.00689617
-0.00661304
-0.00632991
-0.00604679
-0.00576366
-0.00548053
-0.0051974
-0.00491427
-0.00463115
-0.00434802
-0.00406489
-0.00378176
-0.00349863
-0.0032155
-0.00293237
-0.00264924
-0.00236611
-0.00208298
-0.00179985
-0.00151672
-0.00151672
0.01
0.00945208
0.00916441
0.00887947
0.00859556
0.00831208
0.00802879
0.0077456
0.00746244
0.0071793
0.00689617
0.00661304
0.00632991
0.00604679
0.00576366
0.00548053
0.0051974
0.00491427
0.00463115
0.00434802
0.00406489
0.00378176
0.00349863
0.0032155
0.00293237
0.00264924
0.00236611
0.00208298
0.00179985
0.00151672
0.00151672
0.01
0.00947489
0.00919154
0.00890728
0.00862298
0.00833875
0.00805458
0.00777043
0.0074863
0.00720218
0.00691806
0.00663394
0.00634982
0.0060657
0.00578158
0.00549745
0.00521333
0.00492921
0.00464509
0.00436096
0.00407684
0.00379271
0.00350859
0.00322447
0.00294034
0.00265622
0.0023721
0.00208797
0.00180385
0.00151973
0.00151973
0.01
0.00947221
0.00918973
0.00890631
0.0086225
0.00833852
0.00805447
0.00777039
0.00748629
0.00720218
0.00691807
0.00663395
0.00634983
0.00606571
0.00578159
0.00549746
0.00521334
0.00492922
0.00464509
0.00436097
0.00407685
0.00379272
0.0035086
0.00322447
0.00294035
0.00265622
0.0023721
0.00208798
0.00180385
0.00151973
0.00151973
0.01
0.00947126
0.00918883
0.00890572
0.00862216
0.00833835
0.00805439
0.00777035
0.00748628
0.00720218
0.00691807
0.00663395
0.00634983
0.00606571
0.00578159
0.00549746
0.00521334
0.00492922
0.00464509
0.00436097
0.00407685
0.00379272
0.0035086
0.00322447
0.00294035
0.00265622
0.0023721
0.00208798
0.00180385
0.00151973
0.00151973
0.01
0.00947105
0.00918861
0.00890557
0.00862208
0.00833831
0.00805438
0.00777035
0.00748628
0.00720218
0.00691807
0.00663396
0.00634984
0.00606571
0.00578159
0.00549747
0.00521334
0.00492922
0.00464509
0.00436097
0.00407685
0.00379272
0.0035086
0.00322447
0.00294035
0.00265622
0.0023721
0.00208798
0.00180385
0.00151973
0.00151973
0.01
0.00947138
0.00918899
0.00890587
0.00862229
0.00833844
0.00805446
0.0077704
0.00748631
0.0072022
0.00691809
0.00663397
0.00634984
0.00606572
0.00578159
0.00549747
0.00521334
0.00492922
0.00464509
0.00436097
0.00407685
0.00379272
0.0035086
0.00322447
0.00294035
0.00265622
0.0023721
0.00208798
0.00180385
0.00151973
0.00151973
0.01
0.00947252
0.0091901
0.00890664
0.00862276
0.00833871
0.00805461
0.00777049
0.00748636
0.00720223
0.0069181
0.00663398
0.00634985
0.00606572
0.0057816
0.00549747
0.00521334
0.00492922
0.0046451
0.00436097
0.00407685
0.00379272
0.0035086
0.00322447
0.00294035
0.00265622
0.0023721
0.00208798
0.00180385
0.00151973
0.00151973
0.01
0.00947563
0.00919223
0.00890781
0.00862336
0.00833902
0.00805477
0.00777057
0.0074864
0.00720225
0.00691811
0.00663397
0.00634984
0.00606571
0.00578159
0.00549746
0.00521334
0.00492921
0.00464509
0.00436096
0.00407684
0.00379271
0.00350859
0.00322447
0.00294034
0.00265622
0.0023721
0.00208797
0.00180385
0.00151973
0.00151973
0.01
0.00945129
0.00916285
0.00887757
0.00859352
0.00830998
0.00802668
0.0077435
0.00746039
0.0071773
0.00689423
0.00661118
0.00632812
0.00604508
0.00576203
0.00547898
0.00519594
0.0049129
0.00462985
0.00434681
0.00406377
0.00378072
0.00349768
0.00321464
0.00293159
0.00264855
0.00236551
0.00208247
0.00179942
0.00151638
0.00151638
-0.01
-0.00945129
-0.00916285
-0.00887757
-0.00859352
-0.00830998
-0.00802668
-0.0077435
-0.00746039
-0.0071773
-0.00689423
-0.00661118
-0.00632812
-0.00604508
-0.00576203
-0.00547898
-0.00519594
-0.0049129
-0.00462985
-0.00434681
-0.00406377
-0.00378072
-0.00349768
-0.00321464
-0.00293159
-0.00264855
-0.00236551
-0.00208247
-0.00179942
-0.00151638
-0.00151638
