# vtk DataFile Version 2.0
FlowField
ASCII
DATASET STRUCTURED_GRID
DIMENSIONS 31 1 11
POINTS 341 float
0 0 0
1 0 0
2 0 0
3 0 0
4 0 0
5 0 0
6 0 0
7 0 0
8 0 0
9 0 0
10 0 0
11 0 0
12 0 0
13 0 0
14 0 0
15 0 0
16 0 0
17 0 0
18 0 0
19 0 0
20 0 0
21 0 0
22 0 0
23 0 0
24 0 0
25 0 0
26 0 0
27 0 0
28 0 0
29 0 0
30 0 0
0 0 1
1 0 1
2 0 1
3 0 1
4 0 1
5 0 1
6 0 1
7 0 1
8 0 1
9 0 1
10 0 1
11 0 1
12 0 1
13 0 1
14 0 1
15 0 1
16 0 1
17 0 1
18 0 1
19 0 1
20 0 1
21 0 1
22 0 1
23 0 1
24 0 1
25 0 1
26 0 1
27 0 1
28 0 1
29 0 1
30 0 1
0 0 2
1 0 2
2 0 2
3 0 2
4 0 2
5 0 2
6 0 2
7 0 2
8 0 2
9 0 2
10 0 2
11 0 2
12 0 2
13 0 2
14 0 2
15 0 2
16 0 2
17 0 2
18 0 2
19 0 2
20 0 2
21 0 2
22 0 2
23 0 2
24 0 2
25 0 2
26 0 2
27 0 2
28 0 2
29 0 2
30 0 2
0 0 3
1 0 3
2 0 3
3 0 3
4 0 3
5 0 3
6 0 3
7 0 3
8 0 3
9 0 3
10 0 3
11 0 3
12 0 3
13 0 3
14 0 3
15 0 3
16 0 3
17 0 3
18 0 3
19 0 3
20 0 3
21 0 3
22 0 3
23 0 3
24 0 3
25 0 3
26 0 3
27 0 3
28 0 3
29 0 3
30 0 3
0 0 4
1 0 4
2 0 4
3 0 4
4 0 4
5 0 4
6 0 4
7 0 4
8 0 4
9 0 4
10 0 4
11 0 4
12 0 4
13 0 4
14 0 4
15 0 4
16 0 4
17 0 4
18 0 4
19 0 4
20 0 4
21 0 4
22 0 4
23 0 4
24 0 4
25 0 4
26 0 4
27 0 4
28 0 4
29 0 4
30 0 4
0 0 5
1 0 5
2 0 5
3 0 5
4 0 5
5 0 5
6 0 5
7 0 5
8 0 5
9 0 5
10 0 5
11 0 5
12 0 5
13 0 5
14 0 5
15 0 5
16 0 5
17 0 5
18 0 5
19 0 5
20 0 5
21 0 5
22 0 5
23 0 5
24 0 5
25 0 5
26 0 5
27 0 5
28 0 5
29 0 5
30 0 5
0 0 6
1 0 6
2 0 6
3 0 6
4 0 6
5 0 6
6 0 6
7 0 6
8 0 6
9 0 6
10 0 6
11 0 6
12 0 6
13 0 6
14 0 6
15 0 6
16 0 6
17 0 6
18 0 6
19 0 6
20 0 6
21 0 6
22 0 6
23 0 6
24 0 6
25 0 6
26 0 6
27 0 6
28 0 6
29 0 6
30 0 6
0 0 7
1 0 7
2 0 7
3 0 7
4 0 7
5 0 7
6 0 7
7 0 7
8 0 7
9 0 7
10 0 7
11 0 7
12 0 7
13 0 7
14 0 7
15 0 7
16 0 7
17 0 7
18 0 7
19 0 7
20 0 7
21 0 7
22 0 7
23 0 7
24 0 7
25 0 7
26 0 7
27 0 7
28 0 7
29 0 7
30 0 7
0 0 8
1 0 8
2 0 8
3 0 8
4 0 8
5 0 8
6 0 8
7 0 8
8 0 8
9 0 8
10 0 8
11 0 8
12 0 8
13 0 8
14 0 8
15 0 8
16 0 8
17 0 8
18 0 8
19 0 8
20 0 8
21 0 8
22 0 8
23 0 8
24 0 8
25 0 8
26 0 8
27 0 8
28 0 8
29 0 8
30 0 8
0 0 9
1 0 9
2 0 9
3 0 9
4 0 9
5 0 9
6 0 9
7 0 9
8 0 9
9 0 9
10 0 9
11 0 9
12 0 9
13 0 9
14 0 9
15 0 9
16 0 9
17 0 9
18 0 9
19 0 9
20 0 9
21 0 9
22 0 9
23 0 9
24 0 9
25 0 9
26 0 9
27 0 9
28 0 9
29 0 9
30 0 9
0 0 10
1 0 10
2 0 10
3 0 10
4 0 10
5 0 10
6 0 10
7 0 10
8 0 10
9 0 10
10 0 10
11 0 10
12 0 10
13 0 10
14 0 10
15 0 10
16 0 10
17 0 10
18 0 10
19 0 10
20 0 10
21 0 10
22 0 10
23 0 10
24 0 10
25 0 10
26 0 10
27 0 10
28 0 10
29 0 10
30 0 10

POINT_DATA 341

SCALARS U float 1
LOOKUP_TABLE default
-0.01
-0.00964951
-0.00937522
-0.00910894
-0.00884544
-0.00858298
-0.00832091
-0.00805895
-0.00779699
-0.00753501
-0.00727298
-0.00701091
-0.00674882
-0.00648669
-0.00622455
-0.00596239
-0.00570022
-0.00543805
-0.00517587
-0.00491368
-0.0046515
-0.00438931
-0.00412712
-0.00386492
-0.00360273
-0.00334054
-0.00307834
-0.00281615
-0.00255396
-0.00229176
-0.00229176
0.01
0.00964951
0.00937522
0.00910894
0.00884544
0.00858298
0.00832091
0.00805895
0.00779699
0.00753501
0.00727298
0.00701091
0.00674882
0.00648669
0.00622455
0.00596239
0.00570022
0.00543805
0.00517587
0.00491368
0.0046515
0.00438931
0.00412712
0.00386492
0.00360273
0.00334054
0.00307834
0.00281615
0.00255396
0.00229176
0.00229176
0.01
0.00974147
0.00947951
0.0092147
0.00894953
0.00868437
0.00841919
0.00815396
0.00788867
0.00762332
0.00735791
0.00709246
0.00682698
0.00656147
0.00629594
0.00603041
0.00576486
0.0054993
0.00523374
0.00496818
0.00470261
0.00443705
0.00417148
0.00390591
0.00364034
0.00337477
0.0031092
0.00284362
0.00257805
0.00231248
0.00231248
0.01
0.0097344
0.00947498
0.00921258
0.00894878
0.00868429
0.00841941
0.00815429
0.00788903
0.00762367
0.00735824
0.00709276
0.00682725
0.00656172
0.00629618
0.00603062
0.00576506
0.00549949
0.00523391
0.00496834
0.00470276
0.00443718
0.0041716
0.00390602
0.00364044
0.00337486
0.00310928
0.00284369
0.00257811
0.00231253
0.00231253
0.01
0.00973208
0.00947301
0.00921153
0.00894843
0.0086843
0.00841958
0.0081545
0.00788923
0.00762383
0.00735837
0.00709286
0.00682732
0.00656178
0.00629621
0.00603065
0.00576508
0.0054995
0.00523392
0.00496834
0.00470277
0.00443718
0.0041716
0.00390602
0.00364044
0.00337486
0.00310928
0.0028437
0.00257811
0.00231253
0.00231253
0.01
0.00973214
0.00947336
0.00921212
0.00894908
0.00868492
0.00842009
0.00815491
0.00788954
0.00762406
0.00735854
0.00709298
0.00682741
0.00656184
0.00629626
0.00603068
0.0057651
0.00549952
0.00523393
0.00496835
0.00470277
0.00443719
0.00417161
0.00390602
0.00364044
0.00337486
0.00310928
0.0028437
0.00257811
0.00231253
0.00231253
0.01
0.00973432
0.0094761
0.0092145
0.00895088
0.00868619
0.00842097
0.00815551
0.00788995
0.00762435
0.00735873
0.00709312
0.00682751
0.00656191
0.00629631
0.00603071
0.00576512
0.00549953
0.00523395
0.00496836
0.00470278
0.00443719
0.00417161
0.00390603
0.00364044
0.00337486
0.00310928
0.0028437
0.00257811
0.00231253
0.00231253
0.01
0.00974029
0.00948214
0.00921889
0.00895374
0.00868798
0.00842209
0.00815622
0.0078904
0.00762464
0.00735893
0.00709325
0.0068276
0.00656197
0.00629635
0.00603074
0.00576514
0.00549955
0.00523396
0.00496837
0.00470278
0.0044372
0.00417161
0.00390603
0.00364044
0.00337486
0.00310928
0.0028437
0.00257811
0.00231253
0.00231253
0.01
0.00975547
0.00949261
0.00922462
0.00895665
0.00868938
0.00842268
0.00815638
0.00789033
0.00762443
0.00735865
0.00709294
0.00682727
0.00656163
0.00629602
0.00603042
0.00576483
0.00549925
0.00523367
0.0049681
0.00470253
0.00443696
0.00417139
0.00390583
0.00364026
0.0033747
0.00310913
0.00284357
0.002578
0.00231244
0.00231244
0.01
0.00964802
0.00935865
0.00908541
0.00881845
0.00855426
0.00829142
0.00802929
0.00776756
0.00750606
0.00724471
0.00698345
0.00672224
0.00646108
0.00619994
0.00593882
0.00567771
0.00541661
0.00515551
0.00489442
0.00463333
0.00437225
0.00411116
0.00385008
0.00358899
0.00332791
0.00306683
0.00280575
0.00254467
0.00228358
0.00228358
-0.01
-0.00964802
-0.00935865
-0.00908541
-0.00881845
-0.00855426
-0.00829142
-0.00802929
-0.00776756
-0.00750606
-0.00724471
-0.00698345
-0.00672224
-0.00646108
-0.00619994
-0.00593882
-0.00567771
-0.00541661
-0.00515551
-0.00489442
-0.00463333
-0.00437225
-0.00411116
-0.00385008
-0.00358899
-0.00332791
-0.00306683
-0.00280575
-0.00254467
-0.00228358
-0.00228358
