# vtk DataFile Version 2.0
FlowField
ASCII
DATASET STRUCTURED_GRID
DIMENSIONS 31 1 11
POINTS 341 float
0 0 0
1 0 0
2 0 0
3 0 0
4 0 0
5 0 0
6 0 0
7 0 0
8 0 0
9 0 0
10 0 0
11 0 0
12 0 0
13 0 0
14 0 0
15 0 0
16 0 0
17 0 0
18 0 0
19 0 0
20 0 0
21 0 0
22 0 0
23 0 0
24 0 0
25 0 0
26 0 0
27 0 0
28 0 0
29 0 0
30 0 0
0 0 1
1 0 1
2 0 1
3 0 1
4 0 1
5 0 1
6 0 1
7 0 1
8 0 1
9 0 1
10 0 1
11 0 1
12 0 1
13 0 1
14 0 1
15 0 1
16 0 1
17 0 1
18 0 1
19 0 1
20 0 1
21 0 1
22 0 1
23 0 1
24 0 1
25 0 1
26 0 1
27 0 1
28 0 1
29 0 1
30 0 1
0 0 2
1 0 2
2 0 2
3 0 2
4 0 2
5 0 2
6 0 2
7 0 2
8 0 2
9 0 2
10 0 2
11 0 2
12 0 2
13 0 2
14 0 2
15 0 2
16 0 2
17 0 2
18 0 2
19 0 2
20 0 2
21 0 2
22 0 2
23 0 2
24 0 2
25 0 2
26 0 2
27 0 2
28 0 2
29 0 2
30 0 2
0 0 3
1 0 3
2 0 3
3 0 3
4 0 3
5 0 3
6 0 3
7 0 3
8 0 3
9 0 3
10 0 3
11 0 3
12 0 3
13 0 3
14 0 3
15 0 3
16 0 3
17 0 3
18 0 3
19 0 3
20 0 3
21 0 3
22 0 3
23 0 3
24 0 3
25 0 3
26 0 3
27 0 3
28 0 3
29 0 3
30 0 3
0 0 4
1 0 4
2 0 4
3 0 4
4 0 4
5 0 4
6 0 4
7 0 4
8 0 4
9 0 4
10 0 4
11 0 4
12 0 4
13 0 4
14 0 4
15 0 4
16 0 4
17 0 4
18 0 4
19 0 4
20 0 4
21 0 4
22 0 4
23 0 4
24 0 4
25 0 4
26 0 4
27 0 4
28 0 4
29 0 4
30 0 4
0 0 5
1 0 5
2 0 5
3 0 5
4 0 5
5 0 5
6 0 5
7 0 5
8 0 5
9 0 5
10 0 5
11 0 5
12 0 5
13 0 5
14 0 5
15 0 5
16 0 5
17 0 5
18 0 5
19 0 5
20 0 5
21 0 5
22 0 5
23 0 5
24 0 5
25 0 5
26 0 5
27 0 5
28 0 5
29 0 5
30 0 5
0 0 6
1 0 6
2 0 6
3 0 6
4 0 6
5 0 6
6 0 6
7 0 6
8 0 6
9 0 6
10 0 6
11 0 6
12 0 6
13 0 6
14 0 6
15 0 6
16 0 6
17 0 6
18 0 6
19 0 6
20 0 6
21 0 6
22 0 6
23 0 6
24 0 6
25 0 6
26 0 6
27 0 6
28 0 6
29 0 6
30 0 6
0 0 7
1 0 7
2 0 7
3 0 7
4 0 7
5 0 7
6 0 7
7 0 7
8 0 7
9 0 7
10 0 7
11 0 7
12 0 7
13 0 7
14 0 7
15 0 7
16 0 7
17 0 7
18 0 7
19 0 7
20 0 7
21 0 7
22 0 7
23 0 7
24 0 7
25 0 7
26 0 7
27 0 7
28 0 7
29 0 7
30 0 7
0 0 8
1 0 8
2 0 8
3 0 8
4 0 8
5 0 8
6 0 8
7 0 8
8 0 8
9 0 8
10 0 8
11 0 8
12 0 8
13 0 8
14 0 8
15 0 8
16 0 8
17 0 8
18 0 8
19 0 8
20 0 8
21 0 8
22 0 8
23 0 8
24 0 8
25 0 8
26 0 8
27 0 8
28 0 8
29 0 8
30 0 8
0 0 9
1 0 9
2 0 9
3 0 9
4 0 9
5 0 9
6 0 9
7 0 9
8 0 9
9 0 9
10 0 9
11 0 9
12 0 9
13 0 9
14 0 9
15 0 9
16 0 9
17 0 9
18 0 9
19 0 9
20 0 9
21 0 9
22 0 9
23 0 9
24 0 9
25 0 9
26 0 9
27 0 9
28 0 9
29 0 9
30 0 9
0 0 10
1 0 10
2 0 10
3 0 10
4 0 10
5 0 10
6 0 10
7 0 10
8 0 10
9 0 10
10 0 10
11 0 10
12 0 10
13 0 10
14 0 10
15 0 10
16 0 10
17 0 10
18 0 10
19 0 10
20 0 10
21 0 10
22 0 10
23 0 10
24 0 10
25 0 10
26 0 10
27 0 10
28 0 10
29 0 10
30 0 10

POINT_DATA 341

SCALARS U float 1
LOOKUP_TABLE default
-0.01
-0.00964597
-0.00937125
-0.00910593
-0.00884376
-0.00858276
-0.00832217
-0.00806168
-0.00780118
-0.00754061
-0.00727999
-0.00701931
-0.00675858
-0.00649782
-0.00623703
-0.00597622
-0.0057154
-0.00545457
-0.00519373
-0.00493289
-0.00467204
-0.00441119
-0.00415033
-0.00388948
-0.00362863
-0.00336777
-0.00310691
-0.00284606
-0.0025852
-0.00232435
-0.00232435
0.01
0.00964597
0.00937125
0.00910593
0.00884376
0.00858276
0.00832217
0.00806168
0.00780118
0.00754061
0.00727999
0.00701931
0.00675858
0.00649782
0.00623703
0.00597622
0.0057154
0.00545457
0.00519373
0.00493289
0.00467204
0.00441119
0.00415033
0.00388948
0.00362863
0.00336777
0.00310691
0.00284606
0.0025852
0.00232435
0.00232435
0.01
0.00975773
0.00949736
0.00923362
0.00896941
0.00870517
0.00844087
0.00817648
0.007912
0.00764742
0.00738277
0.00711807
0.00685331
0.00658852
0.00632371
0.00605888
0.00579404
0.00552918
0.00526432
0.00499946
0.00473459
0.00446972
0.00420485
0.00393998
0.00367511
0.00341023
0.00314536
0.00288048
0.00261561
0.00235074
0.00235074
0.01
0.00974974
0.00949231
0.00923136
0.00896873
0.00870525
0.00844128
0.00817701
0.00791254
0.00764794
0.00738326
0.00711851
0.00685372
0.00658889
0.00632405
0.0060592
0.00579433
0.00552946
0.00526458
0.0049997
0.00473481
0.00446993
0.00420504
0.00394015
0.00367526
0.00341037
0.00314548
0.00288059
0.0026157
0.00235081
0.00235081
0.01
0.00974716
0.00949017
0.0092303
0.00896846
0.00870538
0.00844157
0.00817732
0.00791282
0.00764817
0.00738343
0.00711864
0.00685381
0.00658897
0.00632411
0.00605924
0.00579436
0.00552948
0.00526459
0.00499971
0.00473482
0.00446993
0.00420504
0.00394016
0.00367527
0.00341038
0.00314549
0.0028806
0.00261571
0.00235082
0.00235082
0.01
0.00974737
0.0094908
0.0092312
0.00896942
0.00870625
0.00844229
0.00817788
0.00791325
0.00764849
0.00738366
0.00711881
0.00685393
0.00658905
0.00632417
0.00605928
0.00579439
0.0055295
0.00526461
0.00499972
0.00473483
0.00446994
0.00420505
0.00394016
0.00367527
0.00341038
0.00314549
0.0028806
0.00261571
0.00235082
0.00235082
0.01
0.00975016
0.00949433
0.00923429
0.00897176
0.00870792
0.00844345
0.00817868
0.0079138
0.00764887
0.00738393
0.00711899
0.00685406
0.00658914
0.00632423
0.00605932
0.00579442
0.00552952
0.00526463
0.00499973
0.00473484
0.00446994
0.00420505
0.00394016
0.00367527
0.00341038
0.00314549
0.0028806
0.00261571
0.00235082
0.00235082
0.01
0.00975766
0.00950195
0.00923986
0.0089754
0.00871022
0.00844489
0.0081796
0.00791439
0.00764925
0.00738418
0.00711916
0.00685418
0.00658922
0.00632429
0.00605936
0.00579445
0.00552954
0.00526464
0.00499974
0.00473484
0.00446995
0.00420505
0.00394016
0.00367527
0.00341038
0.00314549
0.0028806
0.00261571
0.00235081
0.00235081
0.01
0.00977647
0.00951492
0.00924691
0.00897894
0.00871185
0.00844551
0.00817967
0.00791416
0.00764887
0.00738371
0.00711865
0.00685365
0.00658869
0.00632376
0.00605885
0.00579395
0.00552907
0.00526419
0.00499931
0.00473444
0.00446957
0.00420471
0.00393984
0.00367498
0.00341011
0.00314525
0.00288038
0.00261552
0.00235066
0.00235066
0.01
0.00964441
0.00934943
0.00907468
0.00880784
0.00854448
0.00828283
0.00802208
0.00776185
0.00750192
0.00724217
0.00698254
0.00672299
0.00646349
0.00620402
0.00594458
0.00568516
0.00542574
0.00516633
0.00490693
0.00464754
0.00438814
0.00412875
0.00386936
0.00360997
0.00335058
0.00309119
0.0028318
0.00257241
0.00231302
0.00231302
-0.01
-0.00964441
-0.00934943
-0.00907468
-0.00880784
-0.00854448
-0.00828283
-0.00802208
-0.00776185
-0.00750192
-0.00724217
-0.00698254
-0.00672299
-0.00646349
-0.00620402
-0.00594458
-0.00568516
-0.00542574
-0.00516633
-0.00490693
-0.00464754
-0.00438814
-0.00412875
-0.00386936
-0.00360997
-0.00335058
-0.00309119
-0.0028318
-0.00257241
-0.00231302
-0.00231302
